
     Program PWSCF v.7.4.1 starts on  2Aug2025 at 16:11:32 

     This program is part of the open-source Quantum ESPRESSO suite
     for quantum simulation of materials; please cite
         "P. Giannozzi et al., J. Phys.:Condens. Matter 21 395502 (2009);
         "P. Giannozzi et al., J. Phys.:Condens. Matter 29 465901 (2017);
         "P. Giannozzi et al., J. Chem. Phys. 152 154105 (2020);
          URL http://www.quantum-espresso.org", 
     in publications or presentations arising from this work. More details at
     http://www.quantum-espresso.org/quote

     Parallel version (MPI), running on     2 processors

     MPI processes distributed on     1 nodes
     969 MiB available memory on the printing compute node when the environment starts

     Waiting for input...
     Reading input from standard input
Warning: card &CELL ignored
Warning: card / ignored

     Current dimensions of program PWSCF are:
     Max number of different atomic species (ntypx) = 10
     Max number of k-points (npk) =  40000
     Max angular momentum in pseudopotentials (lmaxx) =  4
     Message from routine setup:
     no reason to have ecutrho>4*ecutwfc

     R & G space division:  proc/nbgrp/npool/nimage =       2
     Subspace diagonalization in iterative solution of the eigenvalue problem:
     a serial algorithm will be used


     Parallelization info
     --------------------
     sticks:   dense  smooth     PW     G-vecs:    dense   smooth      PW
     Min        2688    1785    513                74108    40291    6162
     Max        2689    1786    514                74109    40292    6163
     Sum        5377    3571   1027               148217    80583   12325

     Using Slab Decomposition



     bravais-lattice index     =            4
     lattice parameter (alat)  =      14.6990  a.u.
     unit-cell volume          =    1284.7966 (a.u.)^3
     number of atoms/cell      =            2
     number of atomic types    =            1
     number of electrons       =        12.00
     number of Kohn-Sham states=           10
     kinetic-energy cutoff     =      60.0000  Ry
     charge density cutoff     =     360.0000  Ry
     scf convergence threshold =      1.0E-06
     mixing beta               =       0.4000
     number of iterations used =            8  plain     mixing
     energy convergence thresh.=      1.0E-04
     force convergence thresh. =      1.0E-03
     Exchange-correlation= SLA  PW   PBE  PBE
                           (   1   4   3   4   0   0   0)
     nstep                     =          100


     celldm(1)=  14.698989  celldm(2)=   0.000000  celldm(3)=   0.467134
     celldm(4)=   0.000000  celldm(5)=   0.000000  celldm(6)=   0.000000

     crystal axes: (cart. coord. in units of alat)
               a(1) = (   1.000000   0.000000   0.000000 )  
               a(2) = (  -0.500000   0.866025   0.000000 )  
               a(3) = (   0.000000   0.000000   0.467134 )  

     reciprocal axes: (cart. coord. in units 2 pi/alat)
               b(1) = (  1.000000  0.577350 -0.000000 )  
               b(2) = (  0.000000  1.154701  0.000000 )  
               b(3) = (  0.000000 -0.000000  2.140714 )  


     PseudoPot. # 1 for Te read from file:
     /home/tauqeer/Zr6MTe2/sudopoten/Te.pbe-rrkj.upf
     MD5 check sum: 22c11190d1be98e87836461ecdaaa002
     Pseudo is Norm-conserving, Zval =  6.0
     Generated by new atomic code, or converted to UPF format
     Using radial grid of 1191 points,  3 beta functions with: 
                l(1) =   0
                l(2) =   0
                l(3) =   2

     atomic species   valence    mass     pseudopotential
     Te                6.00   127.60000     Te( 1.00)

     24 Sym. Ops., with inversion, found



   Cartesian axes

     site n.     atom                  positions (alat units)
         1        Te     tau(   1) = (   0.5000000   0.2886751   0.0000000  )
         2        Te     tau(   2) = (  -0.0000000   0.5773503   0.0000000  )

     number of k points=     9  Gaussian smearing, width (Ry)=  0.0100
                       cart. coord. in units 2pi/alat
        k(    1) = (   0.0000000   0.0000000   0.0000000), wk =   0.0555556
        k(    2) = (   0.0000000   0.0000000   0.5351785), wk =   0.1111111
        k(    3) = (   0.0000000   0.0000000  -1.0703570), wk =   0.0555556
        k(    4) = (   0.0000000   0.3849002   0.0000000), wk =   0.3333333
        k(    5) = (   0.0000000   0.3849002   0.5351785), wk =   0.6666667
        k(    6) = (   0.0000000   0.3849002  -1.0703570), wk =   0.3333333
        k(    7) = (   0.3333333   0.5773503   0.0000000), wk =   0.1111111
        k(    8) = (   0.3333333   0.5773503   0.5351785), wk =   0.2222222
        k(    9) = (   0.3333333   0.5773503  -1.0703570), wk =   0.1111111

     Dense  grid:   148217 G-vectors     FFT dimensions: (  90,  90,  45)

     Smooth grid:    80583 G-vectors     FFT dimensions: (  75,  75,  36)

     Estimated max dynamical RAM per process >      55.65 MB

     Estimated total dynamical RAM >     111.30 MB

     Initial potential from superposition of free atoms

     starting charge      11.5398, renormalised to      12.0000
     Starting wfcs are   18 randomized atomic wfcs

     total cpu time spent up to now is        1.5 secs

     Self-consistent Calculation

     iteration #  1     ecut=    60.00 Ry     beta= 0.40
     Davidson diagonalization with overlap
     ethr =  1.00E-02,  avg # of iterations =  2.6

     Threshold (ethr) on eigenvalues was too large:
     Diagonalizing with lowered threshold

     Davidson diagonalization with overlap
     ethr =  5.11E-04,  avg # of iterations =  1.4

     total cpu time spent up to now is        4.8 secs

     total energy              =     -32.44901656 Ry
     estimated scf accuracy    <       0.06051707 Ry

     iteration #  2     ecut=    60.00 Ry     beta= 0.40
     Davidson diagonalization with overlap
     ethr =  5.04E-04,  avg # of iterations =  2.3

     total cpu time spent up to now is        6.6 secs

     total energy              =     -32.44907457 Ry
     estimated scf accuracy    <       0.01466927 Ry

     iteration #  3     ecut=    60.00 Ry     beta= 0.40
     Davidson diagonalization with overlap
     ethr =  1.22E-04,  avg # of iterations =  1.8

     total cpu time spent up to now is        8.3 secs

     total energy              =     -32.45088940 Ry
     estimated scf accuracy    <       0.00364246 Ry

     iteration #  4     ecut=    60.00 Ry     beta= 0.40
     Davidson diagonalization with overlap
     ethr =  3.04E-05,  avg # of iterations =  2.9

     total cpu time spent up to now is       10.1 secs

     total energy              =     -32.45130826 Ry
     estimated scf accuracy    <       0.00092174 Ry

     iteration #  5     ecut=    60.00 Ry     beta= 0.40
     Davidson diagonalization with overlap
     ethr =  7.68E-06,  avg # of iterations =  2.7

     total cpu time spent up to now is       12.0 secs

     total energy              =     -32.45142028 Ry
     estimated scf accuracy    <       0.00030589 Ry

     iteration #  6     ecut=    60.00 Ry     beta= 0.40
     Davidson diagonalization with overlap
     ethr =  2.55E-06,  avg # of iterations =  1.2

     total cpu time spent up to now is       13.6 secs

     total energy              =     -32.45140002 Ry
     estimated scf accuracy    <       0.00009190 Ry

     iteration #  7     ecut=    60.00 Ry     beta= 0.40
     Davidson diagonalization with overlap
     ethr =  7.66E-07,  avg # of iterations =  1.0

     total cpu time spent up to now is       15.3 secs

     total energy              =     -32.45141104 Ry
     estimated scf accuracy    <       0.00000119 Ry

     iteration #  8     ecut=    60.00 Ry     beta= 0.40
     Davidson diagonalization with overlap
     ethr =  9.91E-09,  avg # of iterations =  2.0

     total cpu time spent up to now is       17.3 secs

     End of self-consistent calculation

          k = 0.0000 0.0000 0.0000 ( 10025 PWs)   bands (ev):

   -12.0137 -11.7917  -3.1846  -3.1846  -2.2951  -2.2951   0.0118   0.1998
     2.4116   4.7245

          k = 0.0000 0.0000 0.5352 ( 10073 PWs)   bands (ev):

   -11.6671 -11.4529  -2.7942  -2.7942  -2.4302  -2.1194  -1.9448  -1.9448
     3.1873   5.1964

          k = 0.0000 0.0000-1.0704 ( 10072 PWs)   bands (ev):

   -11.2415 -11.0396  -4.0832  -3.7400  -2.3001  -2.3001  -1.5190  -1.5190
     4.0873   4.0873

          k = 0.0000 0.3849 0.0000 ( 10070 PWs)   bands (ev):

   -11.9685 -11.8405  -3.2632  -3.0776  -2.4317  -2.1710   0.0504   0.1589
     3.1418   3.7959

          k = 0.0000 0.3849 0.5352 ( 10083 PWs)   bands (ev):

   -11.6235 -11.5000  -2.8667  -2.6905  -2.3748  -2.1840  -2.0663  -1.8339
     3.7920   4.4533

          k = 0.0000 0.3849-1.0704 ( 10056 PWs)   bands (ev):

   -11.2003 -11.0838  -4.0145  -3.8168  -2.3617  -2.1920  -1.6407  -1.4291
     3.8739   3.9949

          k = 0.3333 0.5774 0.0000 ( 10158 PWs)   bands (ev):

   -11.9054 -11.9054  -3.3476  -2.7615  -2.7615  -2.0589   0.1041   0.1041
     3.2308   4.3711

          k = 0.3333 0.5774 0.5352 ( 10074 PWs)   bands (ev):

   -11.5626 -11.5626  -2.9437  -2.4117  -2.4117  -2.2531  -2.2531  -1.7331
     3.8151   4.9379

          k = 0.3333 0.5774-1.0704 ( 10014 PWs)   bands (ev):

   -11.1428 -11.1428  -3.9176  -3.9176  -2.4250  -1.9215  -1.9215  -1.3461
     3.5654   4.5980

     the Fermi energy is    -2.0953 ev

!    total energy              =     -32.45141130 Ry
     estimated scf accuracy    <       0.00000040 Ry
     smearing contrib. (-TS)   =      -0.00568717 Ry
     internal energy E=F+TS    =     -32.44572413 Ry

     The total energy is F=E-TS. E is the sum of the following terms:
     one-electron contribution =     -12.30888352 Ry
     hartree contribution      =       8.01532853 Ry
     xc contribution           =      -6.73273175 Ry
     ewald contribution        =     -21.41943739 Ry

     convergence has been achieved in   8 iterations

     Forces acting on atoms (cartesian axes, Ry/au):

     atom    1 type  1   force =     0.00000000    0.00000000    0.00000000
     atom    2 type  1   force =     0.00000000    0.00000000    0.00000000

     Total force =     0.000000     Total SCF correction =     0.000000

     BFGS Geometry Optimization
     Energy error            =      0.0E+00 Ry
     Gradient error          =      0.0E+00 Ry/Bohr

     bfgs converged in   1 scf cycles and   0 bfgs steps
     (criteria: energy <  1.0E-04 Ry, force <  1.0E-03 Ry/Bohr)

     End of BFGS Geometry Optimization

     Final energy             =     -32.4514112967 Ry
Begin final coordinates

ATOMIC_POSITIONS (angstrom)
Te               3.8891850000        2.2454220000        0.0000000000
Te               0.0000000000        4.4908440000        0.0000000000
End final coordinates



     Writing all to output data dir ./tmp/Zr6CoTe2.save/ :
     XML data file, charge density, pseudopotentials, collected wavefunctions

     init_run     :      1.39s CPU      1.51s WALL (       1 calls)
     electrons    :     15.30s CPU     15.75s WALL (       1 calls)
     forces       :      0.14s CPU      0.14s WALL (       1 calls)

     Called by init_run:
     wfcinit      :      1.02s CPU      1.07s WALL (       1 calls)
     potinit      :      0.23s CPU      0.29s WALL (       1 calls)
     hinit0       :      0.08s CPU      0.09s WALL (       1 calls)

     Called by electrons:
     c_bands      :     11.14s CPU     11.36s WALL (       9 calls)
     sum_band     :      2.37s CPU      2.46s WALL (       9 calls)
     v_of_rho     :      1.53s CPU      1.67s WALL (       9 calls)
     mix_rho      :      0.26s CPU      0.27s WALL (       9 calls)

     Called by c_bands:
     init_us_2    :      0.31s CPU      0.33s WALL (     180 calls)
     cegterg      :     10.86s CPU     11.07s WALL (      81 calls)

     Called by *egterg:
     cdiaghg      :      0.03s CPU      0.03s WALL (     233 calls)
     h_psi        :     10.33s CPU     10.57s WALL (     251 calls)
     g_psi        :      0.03s CPU      0.03s WALL (     161 calls)

     Called by h_psi:
     h_psi:calbec :      0.40s CPU      0.41s WALL (     251 calls)
     vloc_psi     :      9.58s CPU      9.81s WALL (     251 calls)
     add_vuspsi   :      0.29s CPU      0.29s WALL (     251 calls)

     General routines
     calbec       :      0.46s CPU      0.47s WALL (     287 calls)
     fft          :      0.96s CPU      1.03s WALL (     108 calls)
     ffts         :      0.07s CPU      0.07s WALL (      18 calls)
     fftw         :      8.55s CPU      8.77s WALL (    4666 calls)
     interpolate  :      0.14s CPU      0.14s WALL (       9 calls)

     Parallel routines

     PWSCF        :     16.88s CPU     17.49s WALL


   This run was terminated on:  16:11:50   2Aug2025            

=------------------------------------------------------------------------------=
   JOB DONE.
=------------------------------------------------------------------------------=
