
     Program PWSCF v.7.4.1 starts on  2Aug2025 at 16: 0:54 

     This program is part of the open-source Quantum ESPRESSO suite
     for quantum simulation of materials; please cite
         "P. Giannozzi et al., J. Phys.:Condens. Matter 21 395502 (2009);
         "P. Giannozzi et al., J. Phys.:Condens. Matter 29 465901 (2017);
         "P. Giannozzi et al., J. Chem. Phys. 152 154105 (2020);
          URL http://www.quantum-espresso.org", 
     in publications or presentations arising from this work. More details at
     http://www.quantum-espresso.org/quote

     Parallel version (MPI), running on     2 processors

     MPI processes distributed on     1 nodes
     920 MiB available memory on the printing compute node when the environment starts

     Waiting for input...
     Reading input from standard input
Warning: card &CELL ignored
Warning: card / ignored

     Current dimensions of program PWSCF are:
     Max number of different atomic species (ntypx) = 10
     Max number of k-points (npk) =  40000
     Max angular momentum in pseudopotentials (lmaxx) =  4
     file Co.pbe-nd-rrkjus.upf: wavefunction(s)  4S 3D renormalized

     R & G space division:  proc/nbgrp/npool/nimage =       2
     Subspace diagonalization in iterative solution of the eigenvalue problem:
     a serial algorithm will be used


     Parallelization info
     --------------------
     sticks:   dense  smooth     PW     G-vecs:    dense   smooth      PW
     Min        2688    1785    513                74108    40291    6162
     Max        2689    1786    514                74109    40292    6163
     Sum        5377    3571   1027               148217    80583   12325

     Using Slab Decomposition



     bravais-lattice index     =            4
     lattice parameter (alat)  =      14.6990  a.u.
     unit-cell volume          =    1284.7966 (a.u.)^3
     number of atoms/cell      =            1
     number of atomic types    =            1
     number of electrons       =         9.00
     number of Kohn-Sham states=            9
     kinetic-energy cutoff     =      60.0000  Ry
     charge density cutoff     =     360.0000  Ry
     scf convergence threshold =      1.0E-06
     mixing beta               =       0.4000
     number of iterations used =            8  plain     mixing
     energy convergence thresh.=      1.0E-04
     force convergence thresh. =      1.0E-03
     Exchange-correlation= SLA  PW   PBE  PBE
                           (   1   4   3   4   0   0   0)
     nstep                     =          100


     celldm(1)=  14.698989  celldm(2)=   0.000000  celldm(3)=   0.467134
     celldm(4)=   0.000000  celldm(5)=   0.000000  celldm(6)=   0.000000

     crystal axes: (cart. coord. in units of alat)
               a(1) = (   1.000000   0.000000   0.000000 )  
               a(2) = (  -0.500000   0.866025   0.000000 )  
               a(3) = (   0.000000   0.000000   0.467134 )  

     reciprocal axes: (cart. coord. in units 2 pi/alat)
               b(1) = (  1.000000  0.577350 -0.000000 )  
               b(2) = (  0.000000  1.154701  0.000000 )  
               b(3) = (  0.000000 -0.000000  2.140714 )  


     PseudoPot. # 1 for Co read from file:
     /home/tauqeer/Zr6MTe2/sudopoten/Co.pbe-nd-rrkjus.upf
     MD5 check sum: fa92598a13981d18d918d1aa5ec52a54
     Pseudo is Ultrasoft + core correction, Zval =  9.0
     Generated by new atomic code, or converted to UPF format
     Using radial grid of  961 points,  6 beta functions with: 
                l(1) =   0
                l(2) =   0
                l(3) =   1
                l(4) =   1
                l(5) =   2
                l(6) =   2
     Q(r) pseudized with 0 coefficients 


     atomic species   valence    mass     pseudopotential
     Co                9.00    58.93320     Co( 1.00)

     24 Sym. Ops., with inversion, found



   Cartesian axes

     site n.     atom                  positions (alat units)
         1        Co     tau(   1) = (   0.0000000   0.0000000   0.2335668  )

     number of k points=     9  Gaussian smearing, width (Ry)=  0.0100
                       cart. coord. in units 2pi/alat
        k(    1) = (   0.0000000   0.0000000   0.0000000), wk =   0.0555556
        k(    2) = (   0.0000000   0.0000000   0.5351785), wk =   0.1111111
        k(    3) = (   0.0000000   0.0000000  -1.0703570), wk =   0.0555556
        k(    4) = (   0.0000000   0.3849002   0.0000000), wk =   0.3333333
        k(    5) = (   0.0000000   0.3849002   0.5351785), wk =   0.6666667
        k(    6) = (   0.0000000   0.3849002  -1.0703570), wk =   0.3333333
        k(    7) = (   0.3333333   0.5773503   0.0000000), wk =   0.1111111
        k(    8) = (   0.3333333   0.5773503   0.5351785), wk =   0.2222222
        k(    9) = (   0.3333333   0.5773503  -1.0703570), wk =   0.1111111

     Dense  grid:   148217 G-vectors     FFT dimensions: (  90,  90,  45)

     Smooth grid:    80583 G-vectors     FFT dimensions: (  75,  75,  36)

     Estimated max dynamical RAM per process >     265.21 MB

     Estimated total dynamical RAM >     530.42 MB

     Check: negative core charge=   -0.000009

     Initial potential from superposition of free atoms

     starting charge       8.9995, renormalised to       9.0000
     Starting wfcs are    6 randomized atomic wfcs +    3 random wfcs

     total cpu time spent up to now is        1.5 secs

     Self-consistent Calculation

     iteration #  1     ecut=    60.00 Ry     beta= 0.40
     Davidson diagonalization with overlap
     ethr =  1.00E-02,  avg # of iterations =  7.3

     total cpu time spent up to now is        5.2 secs

     total energy              =     -73.92205655 Ry
     estimated scf accuracy    <       0.12810975 Ry

     iteration #  2     ecut=    60.00 Ry     beta= 0.40
     Davidson diagonalization with overlap
     ethr =  1.42E-03,  avg # of iterations =  2.0

     total cpu time spent up to now is        8.2 secs

     total energy              =     -73.94571716 Ry
     estimated scf accuracy    <       0.77722192 Ry

     iteration #  3     ecut=    60.00 Ry     beta= 0.40
     Davidson diagonalization with overlap
     ethr =  1.42E-03,  avg # of iterations =  1.0

     total cpu time spent up to now is       10.7 secs

     total energy              =     -73.97916638 Ry
     estimated scf accuracy    <       0.02420676 Ry

     iteration #  4     ecut=    60.00 Ry     beta= 0.40
     Davidson diagonalization with overlap
     ethr =  2.69E-04,  avg # of iterations =  1.9

     total cpu time spent up to now is       13.2 secs

     total energy              =     -73.98598817 Ry
     estimated scf accuracy    <       0.05585781 Ry

     iteration #  5     ecut=    60.00 Ry     beta= 0.40
     Davidson diagonalization with overlap
     ethr =  2.69E-04,  avg # of iterations =  1.2

     total cpu time spent up to now is       15.7 secs

     total energy              =     -73.98400344 Ry
     estimated scf accuracy    <       0.16948717 Ry

     iteration #  6     ecut=    60.00 Ry     beta= 0.40
     Davidson diagonalization with overlap
     ethr =  2.69E-04,  avg # of iterations =  1.0

     total cpu time spent up to now is       18.1 secs

     total energy              =     -73.95653221 Ry
     estimated scf accuracy    <       0.11712572 Ry

     iteration #  7     ecut=    60.00 Ry     beta= 0.40
     Davidson diagonalization with overlap
     ethr =  2.69E-04,  avg # of iterations =  2.0

     total cpu time spent up to now is       20.9 secs

     total energy              =     -73.97981629 Ry
     estimated scf accuracy    <       0.11502400 Ry

     iteration #  8     ecut=    60.00 Ry     beta= 0.40
     Davidson diagonalization with overlap
     ethr =  2.69E-04,  avg # of iterations =  1.0

     total cpu time spent up to now is       23.4 secs

     total energy              =     -73.97657775 Ry
     estimated scf accuracy    <       0.04456966 Ry

     iteration #  9     ecut=    60.00 Ry     beta= 0.40
     Davidson diagonalization with overlap
     ethr =  2.69E-04,  avg # of iterations =  1.0

     total cpu time spent up to now is       25.8 secs

     total energy              =     -73.97923244 Ry
     estimated scf accuracy    <       0.00720878 Ry

     iteration # 10     ecut=    60.00 Ry     beta= 0.40
     Davidson diagonalization with overlap
     ethr =  8.01E-05,  avg # of iterations =  2.0

     total cpu time spent up to now is       28.3 secs

     total energy              =     -73.97940341 Ry
     estimated scf accuracy    <       0.00254796 Ry

     iteration # 11     ecut=    60.00 Ry     beta= 0.40
     Davidson diagonalization with overlap
     ethr =  2.83E-05,  avg # of iterations =  1.6

     total cpu time spent up to now is       30.8 secs

     total energy              =     -73.97909773 Ry
     estimated scf accuracy    <       0.01533834 Ry

     iteration # 12     ecut=    60.00 Ry     beta= 0.40
     Davidson diagonalization with overlap
     ethr =  2.83E-05,  avg # of iterations =  1.0

     total cpu time spent up to now is       33.3 secs

     total energy              =     -73.97877292 Ry
     estimated scf accuracy    <       0.00693880 Ry

     iteration # 13     ecut=    60.00 Ry     beta= 0.40
     Davidson diagonalization with overlap
     ethr =  2.83E-05,  avg # of iterations =  1.0

     total cpu time spent up to now is       35.8 secs

     total energy              =     -73.97903855 Ry
     estimated scf accuracy    <       0.00529616 Ry

     iteration # 14     ecut=    60.00 Ry     beta= 0.40
     Davidson diagonalization with overlap
     ethr =  2.83E-05,  avg # of iterations =  1.0

     total cpu time spent up to now is       38.2 secs

     total energy              =     -73.97927038 Ry
     estimated scf accuracy    <       0.00165103 Ry

     iteration # 15     ecut=    60.00 Ry     beta= 0.40
     Davidson diagonalization with overlap
     ethr =  1.83E-05,  avg # of iterations =  1.0

     total cpu time spent up to now is       40.6 secs

     total energy              =     -73.97960487 Ry
     estimated scf accuracy    <       0.01020701 Ry

     iteration # 16     ecut=    60.00 Ry     beta= 0.40
     Davidson diagonalization with overlap
     ethr =  1.83E-05,  avg # of iterations =  1.0

     total cpu time spent up to now is       43.0 secs

     total energy              =     -73.97859203 Ry
     estimated scf accuracy    <       0.01588594 Ry

     iteration # 17     ecut=    60.00 Ry     beta= 0.40
     Davidson diagonalization with overlap
     ethr =  1.83E-05,  avg # of iterations =  1.0

     total cpu time spent up to now is       45.4 secs

     total energy              =     -73.97895612 Ry
     estimated scf accuracy    <       0.00045661 Ry

     iteration # 18     ecut=    60.00 Ry     beta= 0.40
     Davidson diagonalization with overlap
     ethr =  5.07E-06,  avg # of iterations =  1.0

     total cpu time spent up to now is       48.0 secs

     total energy              =     -73.97895335 Ry
     estimated scf accuracy    <       0.00009951 Ry

     iteration # 19     ecut=    60.00 Ry     beta= 0.40
     Davidson diagonalization with overlap
     ethr =  1.11E-06,  avg # of iterations =  1.4

     total cpu time spent up to now is       50.5 secs

     total energy              =     -73.97895384 Ry
     estimated scf accuracy    <       0.00005946 Ry

     iteration # 20     ecut=    60.00 Ry     beta= 0.40
     Davidson diagonalization with overlap
     ethr =  6.61E-07,  avg # of iterations =  1.0

     total cpu time spent up to now is       52.9 secs

     total energy              =     -73.97895309 Ry
     estimated scf accuracy    <       0.00004592 Ry

     iteration # 21     ecut=    60.00 Ry     beta= 0.40
     Davidson diagonalization with overlap
     ethr =  5.10E-07,  avg # of iterations =  1.0

     total cpu time spent up to now is       55.4 secs

     total energy              =     -73.97895021 Ry
     estimated scf accuracy    <       0.00002959 Ry

     iteration # 22     ecut=    60.00 Ry     beta= 0.40
     Davidson diagonalization with overlap
     ethr =  3.29E-07,  avg # of iterations =  1.0

     total cpu time spent up to now is       57.9 secs

     total energy              =     -73.97895185 Ry
     estimated scf accuracy    <       0.00000426 Ry

     iteration # 23     ecut=    60.00 Ry     beta= 0.40
     Davidson diagonalization with overlap
     ethr =  4.73E-08,  avg # of iterations =  1.0

     total cpu time spent up to now is       60.4 secs

     total energy              =     -73.97895179 Ry
     estimated scf accuracy    <       0.00000132 Ry

     iteration # 24     ecut=    60.00 Ry     beta= 0.40
     Davidson diagonalization with overlap
     ethr =  1.47E-08,  avg # of iterations =  1.0

     total cpu time spent up to now is       62.8 secs

     End of self-consistent calculation

          k = 0.0000 0.0000 0.0000 ( 10025 PWs)   bands (ev):

    -4.4313  -3.6422  -3.6076  -3.6076  -3.4814  -3.4814  -0.0142  -0.0142
     0.6478

          k = 0.0000 0.0000 0.5352 ( 10073 PWs)   bands (ev):

    -3.6950  -3.6030  -3.6030  -3.5868  -3.5868  -3.5245   0.7413   0.7413
     1.3221

          k = 0.0000 0.0000-1.0704 ( 10072 PWs)   bands (ev):

    -3.7085  -3.7085  -3.5662  -3.5662  -3.5119  -1.7644  -0.7357   2.1372
     2.1372

          k = 0.0000 0.3849 0.0000 ( 10070 PWs)   bands (ev):

    -4.4055  -3.6233  -3.6068  -3.6054  -3.4814  -3.4814  -0.6844  -0.1547
     1.2829

          k = 0.0000 0.3849 0.5352 ( 10083 PWs)   bands (ev):

    -3.6875  -3.6044  -3.6033  -3.5871  -3.5853  -3.4899   0.0643   0.6005
     1.9673

          k = 0.0000 0.3849-1.0704 ( 10056 PWs)   bands (ev):

    -3.7097  -3.7088  -3.5662  -3.5654  -3.5087  -1.7325  -0.6851   1.6693
     2.0393

          k = 0.3333 0.5774 0.0000 ( 10158 PWs)   bands (ev):

    -4.3926  -3.6112  -3.6062  -3.6062  -3.4814  -3.4814  -0.6199  -0.6199
     2.2674

          k = 0.3333 0.5774 0.5352 ( 10074 PWs)   bands (ev):

    -3.6844  -3.6043  -3.6043  -3.5858  -3.5858  -3.4715   0.1311   0.1311
     2.6133

          k = 0.3333 0.5774-1.0704 ( 10014 PWs)   bands (ev):

    -3.7097  -3.7097  -3.5656  -3.5656  -3.5072  -1.7159  -0.6587   1.7135
     1.7135

     the Fermi energy is    -3.5009 ev

!    total energy              =     -73.97895179 Ry
     estimated scf accuracy    <       0.00000005 Ry
     smearing contrib. (-TS)   =      -0.01906008 Ry
     internal energy E=F+TS    =     -73.95989170 Ry

     The total energy is F=E-TS. E is the sum of the following terms:
     one-electron contribution =     -61.74527108 Ry
     hartree contribution      =      38.07949991 Ry
     xc contribution           =     -32.65058132 Ry
     ewald contribution        =     -17.64353920 Ry

     convergence has been achieved in  24 iterations

     Forces acting on atoms (cartesian axes, Ry/au):

     atom    1 type  1   force =     0.00000000    0.00000000    0.00000000

     Total force =     0.000000     Total SCF correction =     0.000000

     BFGS Geometry Optimization
     Energy error            =      0.0E+00 Ry
     Gradient error          =      0.0E+00 Ry/Bohr

     bfgs converged in   1 scf cycles and   0 bfgs steps
     (criteria: energy <  1.0E-04 Ry, force <  1.0E-03 Ry/Bohr)

     End of BFGS Geometry Optimization

     Final energy             =     -73.9789517858 Ry
Begin final coordinates

ATOMIC_POSITIONS (angstrom)
Co               0.0000000000        0.0000000000        1.8167690000
End final coordinates



     Writing all to output data dir ./tmp/Zr6CoTe2.save/ :
     XML data file, charge density, pseudopotentials, collected wavefunctions

     init_run     :      1.32s CPU      1.47s WALL (       1 calls)
     electrons    :     56.14s CPU     61.25s WALL (       1 calls)
     forces       :      0.68s CPU      0.81s WALL (       1 calls)

     Called by init_run:
     wfcinit      :      0.53s CPU      0.54s WALL (       1 calls)
     potinit      :      0.21s CPU      0.24s WALL (       1 calls)
     hinit0       :      0.21s CPU      0.23s WALL (       1 calls)

     Called by electrons:
     c_bands      :     28.67s CPU     29.18s WALL (      24 calls)
     sum_band     :     15.39s CPU     17.69s WALL (      24 calls)
     v_of_rho     :      4.43s CPU      4.55s WALL (      25 calls)
     newd         :      6.56s CPU      8.75s WALL (      25 calls)
     mix_rho      :      1.04s CPU      1.08s WALL (      24 calls)

     Called by c_bands:
     init_us_2    :      1.01s CPU      1.02s WALL (     450 calls)
     cegterg      :     27.44s CPU     27.94s WALL (     216 calls)

     Called by *egterg:
     cdiaghg      :      0.07s CPU      0.07s WALL (     535 calls)
     h_psi        :     23.77s CPU     24.27s WALL (     544 calls)
     s_psi        :      0.92s CPU      0.93s WALL (     544 calls)
     g_psi        :      0.07s CPU      0.07s WALL (     319 calls)

     Called by h_psi:
     h_psi:calbec :      1.22s CPU      1.24s WALL (     544 calls)
     vloc_psi     :     21.53s CPU     22.00s WALL (     544 calls)
     add_vuspsi   :      0.91s CPU      0.91s WALL (     544 calls)

     General routines
     calbec       :      1.87s CPU      1.89s WALL (     796 calls)
     fft          :      3.03s CPU      3.20s WALL (     334 calls)
     ffts         :      0.19s CPU      0.20s WALL (      49 calls)
     fftw         :     19.74s CPU     20.17s WALL (   10420 calls)
     interpolate  :      0.39s CPU      0.41s WALL (      25 calls)

     Parallel routines

     PWSCF        :     58.25s CPU   1m 3.68s WALL


   This run was terminated on:  16: 1:58   2Aug2025            

=------------------------------------------------------------------------------=
   JOB DONE.
=------------------------------------------------------------------------------=
