
     Program PWSCF v.7.4.1 starts on  2Aug2025 at 11:47: 4 

     This program is part of the open-source Quantum ESPRESSO suite
     for quantum simulation of materials; please cite
         "P. Giannozzi et al., J. Phys.:Condens. Matter 21 395502 (2009);
         "P. Giannozzi et al., J. Phys.:Condens. Matter 29 465901 (2017);
         "P. Giannozzi et al., J. Chem. Phys. 152 154105 (2020);
          URL http://www.quantum-espresso.org", 
     in publications or presentations arising from this work. More details at
     http://www.quantum-espresso.org/quote

     Parallel version (MPI), running on     2 processors

     MPI processes distributed on     1 nodes
     1268 MiB available memory on the printing compute node when the environment starts

     Waiting for input...
     Reading input from standard input
Warning: card &CELL ignored
Warning: card / ignored

     Current dimensions of program PWSCF are:
     Max number of different atomic species (ntypx) = 10
     Max number of k-points (npk) =  40000
     Max angular momentum in pseudopotentials (lmaxx) =  4
     file Co.pbe-nd-rrkjus.upf: wavefunction(s)  4S 3D renormalized

     R & G space division:  proc/nbgrp/npool/nimage =       2
     Subspace diagonalization in iterative solution of the eigenvalue problem:
     a serial algorithm will be used


     Parallelization info
     --------------------
     sticks:   dense  smooth     PW     G-vecs:    dense   smooth      PW
     Min        2688    1785    513                74108    40291    6162
     Max        2689    1786    514                74109    40292    6163
     Sum        5377    3571   1027               148217    80583   12325

     Using Slab Decomposition



     bravais-lattice index     =            4
     lattice parameter (alat)  =      14.6990  a.u.
     unit-cell volume          =    1284.7966 (a.u.)^3
     number of atoms/cell      =            9
     number of atomic types    =            3
     number of electrons       =        93.00
     number of Kohn-Sham states=           56
     kinetic-energy cutoff     =      60.0000  Ry
     charge density cutoff     =     360.0000  Ry
     scf convergence threshold =      1.0E-06
     mixing beta               =       0.4000
     number of iterations used =            8  plain     mixing
     energy convergence thresh.=      1.0E-04
     force convergence thresh. =      1.0E-03
     Exchange-correlation= SLA  PW   PBE  PBE
                           (   1   4   3   4   0   0   0)
     nstep                     =          100


     celldm(1)=  14.698989  celldm(2)=   0.000000  celldm(3)=   0.467134
     celldm(4)=   0.000000  celldm(5)=   0.000000  celldm(6)=   0.000000

     crystal axes: (cart. coord. in units of alat)
               a(1) = (   1.000000   0.000000   0.000000 )  
               a(2) = (  -0.500000   0.866025   0.000000 )  
               a(3) = (   0.000000   0.000000   0.467134 )  

     reciprocal axes: (cart. coord. in units 2 pi/alat)
               b(1) = (  1.000000  0.577350 -0.000000 )  
               b(2) = (  0.000000  1.154701  0.000000 )  
               b(3) = (  0.000000 -0.000000  2.140714 )  


     PseudoPot. # 1 for Zr read from file:
     /home/tauqeer/Zr6MTe2/sudopoten/Zr.pbe-nsp-van.upf
     MD5 check sum: f06f7249673c13908de31cca45056a07
     Pseudo is Ultrasoft + core correction, Zval = 12.0
     Generated by new atomic code, or converted to UPF format
     Using radial grid of  887 points,  6 beta functions with: 
                l(1) =   0
                l(2) =   0
                l(3) =   1
                l(4) =   1
                l(5) =   2
                l(6) =   2
     Q(r) pseudized with  6 coefficients,  rinner =    1.200   1.200   1.200
                                                       1.200   1.200

     PseudoPot. # 2 for Co read from file:
     /home/tauqeer/Zr6MTe2/sudopoten/Co.pbe-nd-rrkjus.upf
     MD5 check sum: fa92598a13981d18d918d1aa5ec52a54
     Pseudo is Ultrasoft + core correction, Zval =  9.0
     Generated by new atomic code, or converted to UPF format
     Using radial grid of  961 points,  6 beta functions with: 
                l(1) =   0
                l(2) =   0
                l(3) =   1
                l(4) =   1
                l(5) =   2
                l(6) =   2
     Q(r) pseudized with 0 coefficients 


     PseudoPot. # 3 for Te read from file:
     /home/tauqeer/Zr6MTe2/sudopoten/Te.pbe-rrkj.upf
     MD5 check sum: 22c11190d1be98e87836461ecdaaa002
     Pseudo is Norm-conserving, Zval =  6.0
     Generated by new atomic code, or converted to UPF format
     Using radial grid of 1191 points,  3 beta functions with: 
                l(1) =   0
                l(2) =   0
                l(3) =   2

     atomic species   valence    mass     pseudopotential
     Zr               12.00    91.22400     Zr( 1.00)
     Co                9.00    58.93320     Co( 1.00)
     Te                6.00   127.60000     Te( 1.00)

     12 Sym. Ops. (no inversion) found



   Cartesian axes

     site n.     atom                  positions (alat units)
         1        Zr     tau(   1) = (   0.1186974   0.2055899   0.0000000  )
         2        Zr     tau(   2) = (   0.7626053   0.0000000   0.0000000  )
         3        Zr     tau(   3) = (  -0.3813026   0.6604355   0.0000000  )
         4        Zr     tau(   4) = (   0.2975946   0.5154489   0.2335668  )
         5        Zr     tau(   5) = (   0.4048109   0.0000000   0.2335668  )
         6        Zr     tau(   6) = (  -0.2024054   0.3505765   0.2335668  )
         7        Co     tau(   7) = (   0.0000000   0.0000000   0.2335668  )
         8        Te     tau(   8) = (   0.5000000   0.2886751   0.0000000  )
         9        Te     tau(   9) = (  -0.0000000   0.5773503   0.0000000  )

     number of k points=     9  Gaussian smearing, width (Ry)=  0.0100
                       cart. coord. in units 2pi/alat
        k(    1) = (   0.0000000   0.0000000   0.0000000), wk =   0.0555556
        k(    2) = (   0.0000000   0.0000000   0.5351785), wk =   0.1111111
        k(    3) = (   0.0000000   0.0000000  -1.0703570), wk =   0.0555556
        k(    4) = (   0.0000000   0.3849002   0.0000000), wk =   0.3333333
        k(    5) = (   0.0000000   0.3849002   0.5351785), wk =   0.6666667
        k(    6) = (   0.0000000   0.3849002  -1.0703570), wk =   0.3333333
        k(    7) = (   0.3333333   0.5773503   0.0000000), wk =   0.1111111
        k(    8) = (   0.3333333   0.5773503   0.5351785), wk =   0.2222222
        k(    9) = (   0.3333333   0.5773503  -1.0703570), wk =   0.1111111

     Dense  grid:   148217 G-vectors     FFT dimensions: (  90,  90,  45)

     Smooth grid:    80583 G-vectors     FFT dimensions: (  75,  75,  36)

     Estimated max dynamical RAM per process >     335.30 MB

     Estimated total dynamical RAM >     670.60 MB

     Check: negative core charge=   -0.000007

     Initial potential from superposition of free atoms

     starting charge      92.5264, renormalised to      93.0000

     negative rho (up, down):  3.646E-01 0.000E+00
     Starting wfcs are  102 randomized atomic wfcs

     total cpu time spent up to now is       19.2 secs

     Self-consistent Calculation

     iteration #  1     ecut=    60.00 Ry     beta= 0.40
     Davidson diagonalization with overlap
     ethr =  1.00E-02,  avg # of iterations =  2.0

     negative rho (up, down):  3.622E-01 0.000E+00

     total cpu time spent up to now is       43.9 secs

     total energy              =    -690.48058025 Ry
     estimated scf accuracy    <      20.64050148 Ry

     iteration #  2     ecut=    60.00 Ry     beta= 0.40
     Davidson diagonalization with overlap
     ethr =  1.00E-02,  avg # of iterations =  6.6

     negative rho (up, down):  3.632E-01 0.000E+00

     total cpu time spent up to now is       81.4 secs

     total energy              =    -695.18289262 Ry
     estimated scf accuracy    <     115.85934507 Ry

     iteration #  3     ecut=    60.00 Ry     beta= 0.40
     Davidson diagonalization with overlap
     ethr =  1.00E-02,  avg # of iterations =  3.3

     negative rho (up, down):  3.649E-01 0.000E+00

     total cpu time spent up to now is      109.4 secs

     total energy              =    -702.91739794 Ry
     estimated scf accuracy    <       9.63806327 Ry

     iteration #  4     ecut=    60.00 Ry     beta= 0.40
     Davidson diagonalization with overlap
     ethr =  1.00E-02,  avg # of iterations =  1.0

     negative rho (up, down):  3.681E-01 0.000E+00

     total cpu time spent up to now is      130.0 secs

     total energy              =    -702.00486854 Ry
     estimated scf accuracy    <       5.59301406 Ry

     iteration #  5     ecut=    60.00 Ry     beta= 0.40
     Davidson diagonalization with overlap
     ethr =  6.01E-03,  avg # of iterations =  1.8

     negative rho (up, down):  3.696E-01 0.000E+00

     total cpu time spent up to now is      152.4 secs

     total energy              =    -702.36913704 Ry
     estimated scf accuracy    <       0.07847627 Ry

     iteration #  6     ecut=    60.00 Ry     beta= 0.40
     Davidson diagonalization with overlap
     ethr =  8.44E-05,  avg # of iterations = 12.3

     negative rho (up, down):  3.707E-01 0.000E+00

     total cpu time spent up to now is      192.3 secs

     total energy              =    -702.27427840 Ry
     estimated scf accuracy    <       0.54130284 Ry

     iteration #  7     ecut=    60.00 Ry     beta= 0.40
     Davidson diagonalization with overlap
     ethr =  8.44E-05,  avg # of iterations =  7.4

     negative rho (up, down):  3.704E-01 0.000E+00

     total cpu time spent up to now is      228.1 secs

     total energy              =    -702.20156272 Ry
     estimated scf accuracy    <       2.44902448 Ry

     iteration #  8     ecut=    60.00 Ry     beta= 0.40
     Davidson diagonalization with overlap
     ethr =  8.44E-05,  avg # of iterations =  6.0

     negative rho (up, down):  3.710E-01 0.000E+00

     total cpu time spent up to now is      261.5 secs

     total energy              =    -702.38814517 Ry
     estimated scf accuracy    <       0.25671814 Ry

     iteration #  9     ecut=    60.00 Ry     beta= 0.40
     Davidson diagonalization with overlap
     ethr =  8.44E-05,  avg # of iterations =  2.6

     negative rho (up, down):  3.713E-01 0.000E+00

     total cpu time spent up to now is      284.7 secs

     total energy              =    -702.39777271 Ry
     estimated scf accuracy    <       0.01191631 Ry

     iteration # 10     ecut=    60.00 Ry     beta= 0.40
     Davidson diagonalization with overlap
     ethr =  1.28E-05,  avg # of iterations =  4.9

     negative rho (up, down):  3.714E-01 0.000E+00

     total cpu time spent up to now is      310.2 secs

     total energy              =    -702.39882795 Ry
     estimated scf accuracy    <       0.00086121 Ry

     iteration # 11     ecut=    60.00 Ry     beta= 0.40
     Davidson diagonalization with overlap
     ethr =  9.26E-07,  avg # of iterations =  7.7

     negative rho (up, down):  3.714E-01 0.000E+00

     total cpu time spent up to now is      342.3 secs

     total energy              =    -702.39880537 Ry
     estimated scf accuracy    <       0.00220285 Ry

     iteration # 12     ecut=    60.00 Ry     beta= 0.40
     Davidson diagonalization with overlap
     ethr =  9.26E-07,  avg # of iterations =  4.6

     negative rho (up, down):  3.714E-01 0.000E+00

     total cpu time spent up to now is      367.3 secs

     total energy              =    -702.39902610 Ry
     estimated scf accuracy    <       0.00129288 Ry

     iteration # 13     ecut=    60.00 Ry     beta= 0.40
     Davidson diagonalization with overlap
     ethr =  9.26E-07,  avg # of iterations =  2.1

     negative rho (up, down):  3.714E-01 0.000E+00

     total cpu time spent up to now is      389.8 secs

     total energy              =    -702.39908961 Ry
     estimated scf accuracy    <       0.00002023 Ry

     iteration # 14     ecut=    60.00 Ry     beta= 0.40
     Davidson diagonalization with overlap
     ethr =  2.17E-08,  avg # of iterations =  5.0

     negative rho (up, down):  3.714E-01 0.000E+00

     total cpu time spent up to now is      417.0 secs

     total energy              =    -702.39909864 Ry
     estimated scf accuracy    <       0.00000231 Ry

     iteration # 15     ecut=    60.00 Ry     beta= 0.40
     Davidson diagonalization with overlap
     ethr =  2.48E-09,  avg # of iterations =  2.9

     negative rho (up, down):  3.714E-01 0.000E+00

     total cpu time spent up to now is      440.1 secs

     End of self-consistent calculation

          k = 0.0000 0.0000 0.0000 ( 10025 PWs)   bands (ev):

   -34.9563 -34.9474 -34.9474 -34.5197 -34.4887 -34.4887 -13.2788 -13.1610
   -13.1610 -13.0384 -12.9816 -12.9816 -12.9682 -12.9267 -12.9267 -12.6867
   -12.6710 -12.6710 -12.4919 -12.4185 -12.4185 -12.3936 -12.3932 -12.3932
     0.8128   1.4611   8.1824   8.1824   9.4799   9.4799   9.5401  11.0171
    11.0839  11.6127  11.6127  11.9216  11.9216  12.0344  12.1901  12.1901
    12.1958  13.5663  13.5663  14.4861  14.4861  14.5557  14.6366  14.6366
    14.7419  15.0951  15.0951  15.2687  15.2687  15.4434  15.6446  15.8800

          k = 0.0000 0.0000 0.5352 ( 10073 PWs)   bands (ev):

   -34.9484 -34.9422 -34.9422 -34.5172 -34.4842 -34.4842 -13.2364 -13.1555
   -13.1555 -13.0771 -13.0752 -13.0752 -12.9495 -12.9412 -12.9412 -12.7271
   -12.6258 -12.6258 -12.5108 -12.4893 -12.4751 -12.4751 -12.4043 -12.4043
     1.3166   1.6247   8.7613   8.7613   9.2585   9.3671   9.3671   9.7251
    10.2988  11.6830  11.9212  11.9212  11.9244  11.9244  12.6072  12.6643
    12.6643  13.3304  13.3304  13.5931  13.5931  13.7003  14.0982  14.0982
    14.6889  14.7741  15.2526  15.2526  15.4068  16.0252  16.0252  16.6444

          k = 0.0000 0.0000-1.0704 ( 10072 PWs)   bands (ev):

   -34.9404 -34.9370 -34.9370 -34.5148 -34.4797 -34.4797 -13.1908 -13.1861
   -13.1861 -13.1520 -13.1520 -13.1450 -12.9185 -12.9185 -12.8637 -12.8069
   -12.6068 -12.6068 -12.5797 -12.5328 -12.4854 -12.4854 -12.4510 -12.4510
     1.8119   1.9782   7.5104   8.6864   8.9585   8.9585   9.8371   9.8371
    11.2966  11.5164  11.5164  12.0584  12.0584  12.4120  12.5575  12.5585
    12.9297  12.9297  13.4104  13.4104  13.7428  13.7428  14.1520  14.1520
    14.2767  14.3516  14.3516  14.4740  16.3301  16.3301  16.4533  16.7009

          k = 0.0000 0.3849 0.0000 ( 10070 PWs)   bands (ev):

   -34.9538 -34.9491 -34.9480 -34.5223 -34.4881 -34.4869 -13.2506 -13.1906
   -13.1791 -13.0428 -12.9940 -12.9566 -12.9352 -12.9301 -12.9212 -12.7983
   -12.6297 -12.5553 -12.5004 -12.4694 -12.4296 -12.4107 -12.3892 -12.3799
     0.9553   1.3208   7.9756   8.1495   8.9804   9.4994  10.2526  11.1079
    11.2768  11.5824  11.7630  11.8301  12.0619  12.1973  12.2842  12.2917
    12.3948  12.9937  13.0383  14.1478  14.4990  14.5797  14.8022  14.9273
    15.0065  15.0485  15.1592  15.2633  15.4356  15.4544  15.5703  15.6020

          k = 0.0000 0.3849 0.5352 ( 10083 PWs)   bands (ev):

   -34.9467 -34.9434 -34.9426 -34.5185 -34.4839 -34.4834 -13.2209 -13.1747
   -13.1605 -13.0822 -13.0721 -13.0425 -12.9830 -12.9423 -12.9197 -12.7639
   -12.6244 -12.5956 -12.5140 -12.4948 -12.4657 -12.4461 -12.4268 -12.4159
     1.3909   1.5613   8.5269   8.6555   9.0552   9.3432   9.5577   9.8001
    10.6513  11.6714  11.8838  11.9664  12.0300  12.0727  12.5825  12.7722
    12.8778  12.9768  13.1754  13.5033  13.6048  13.8552  13.9328  14.2035
    14.6027  14.8931  15.3112  15.4786  15.6795  15.8551  15.9738  16.2590

          k = 0.0000 0.3849-1.0704 ( 10056 PWs)   bands (ev):

   -34.9396 -34.9377 -34.9370 -34.5147 -34.4798 -34.4798 -13.1943 -13.1914
   -13.1834 -13.1595 -13.1362 -13.1239 -12.9641 -12.9031 -12.8476 -12.8105
   -12.6552 -12.6214 -12.5450 -12.5293 -12.4735 -12.4726 -12.4568 -12.4505
     1.8400   1.9447   7.6980   8.3552   8.9883   9.1727   9.6412   9.7014
    11.0789  11.8643  11.9122  11.9695  12.0728  12.3189  12.4434  12.6850
    12.8841  12.9884  13.1180  13.3147  13.4501  13.6912  13.7273  13.8142
    14.7168  14.9509  15.1457  15.3164  16.0483  16.2560  16.5809  16.6486

          k = 0.3333 0.5774 0.0000 ( 10158 PWs)   bands (ev):

   -34.9508 -34.9508 -34.9494 -34.5235 -34.4869 -34.4869 -13.2199 -13.2199
   -13.1875 -13.0021 -13.0021 -12.9771 -12.9419 -12.9419 -12.9382 -12.7582
   -12.5909 -12.5909 -12.5048 -12.4543 -12.4543 -12.4156 -12.3820 -12.3820
     1.1394   1.1394   7.6477   8.6277   8.6277   9.7337  10.1734  11.2088
    11.5456  11.5456  11.6770  11.6770  12.2243  12.2243  12.2607  12.2607
    12.5255  12.9516  12.9516  14.3276  14.5858  14.5858  14.6385  14.6903
    14.6903  14.7013  15.1074  15.1795  15.1795  15.7847  15.8851  15.8851

          k = 0.3333 0.5774 0.5352 ( 10074 PWs)   bands (ev):

   -34.9447 -34.9447 -34.9432 -34.5191 -34.4834 -34.4834 -13.1998 -13.1998
   -13.1587 -13.0711 -13.0711 -13.0606 -12.9430 -12.9430 -12.9383 -12.7933
   -12.6039 -12.6039 -12.5154 -12.4604 -12.4604 -12.4413 -12.4406 -12.4406
     1.4792   1.4792   8.3071   8.7980   8.7980   9.6282   9.7113   9.7113
    10.6506  11.6698  11.8973  11.8973  12.1531  12.1531  12.4844  12.7218
    12.7218  13.2464  13.3732  13.5057  13.5057  13.6836  13.6837  14.4919
    14.8287  14.8287  15.3307  15.3307  15.8543  15.9121  15.9121  15.9645

          k = 0.3333 0.5774-1.0704 ( 10014 PWs)   bands (ev):

   -34.9387 -34.9387 -34.9370 -34.5146 -34.4798 -34.4798 -13.1824 -13.1824
   -13.1775 -13.1775 -13.1360 -13.1284 -12.9844 -12.8690 -12.8689 -12.7901
   -12.6624 -12.6624 -12.5275 -12.5037 -12.5037 -12.4643 -12.4490 -12.4490
     1.8908   1.8908   7.9949   7.9949   9.0908   9.4280   9.4280   9.4943
    10.9901  12.0138  12.0138  12.0944  12.0944  12.1352  12.4633  12.8609
    13.0026  13.0026  13.1735  13.1735  13.3697  13.5209  13.5939  13.5939
    15.0432  15.0432  15.6829  15.6829  15.9995  16.2974  16.5035  16.5035

     the Fermi energy is    14.1763 ev

!    total energy              =    -702.39909853 Ry
     estimated scf accuracy    <       0.00000030 Ry
     smearing contrib. (-TS)   =      -0.00379710 Ry
     internal energy E=F+TS    =    -702.39530144 Ry

     The total energy is F=E-TS. E is the sum of the following terms:
     one-electron contribution =    -135.67170798 Ry
     hartree contribution      =     115.76340721 Ry
     xc contribution           =    -147.25488839 Ry
     ewald contribution        =    -535.23211228 Ry

     convergence has been achieved in  15 iterations

     negative rho (up, down):  3.714E-01 0.000E+00

     Forces acting on atoms (cartesian axes, Ry/au):

     atom    1 type  1   force =     0.00201552    0.00349098    0.00000000
     atom    2 type  1   force =    -0.00403103    0.00000000   -0.00000000
     atom    3 type  1   force =     0.00201552   -0.00349098    0.00000000
     atom    4 type  1   force =    -0.00081604   -0.00141343    0.00000000
     atom    5 type  1   force =     0.00163208    0.00000000    0.00000000
     atom    6 type  1   force =    -0.00081604    0.00141343    0.00000000
     atom    7 type  2   force =     0.00000000    0.00000000    0.00000000
     atom    8 type  3   force =    -0.00000000   -0.00000000    0.00000000
     atom    9 type  3   force =    -0.00000000   -0.00000000    0.00000000

     Total force =     0.007533     Total SCF correction =     0.000379

     BFGS Geometry Optimization
     Energy error            =      5.7E-05 Ry
     Gradient error          =      4.0E-03 Ry/Bohr

     number of scf cycles    =   1
     number of bfgs steps    =   0

     energy             new  =    -702.3990985338 Ry

     new trust radius        =       0.0040310325 bohr
     new conv_thr            =       0.0000010000 Ry


ATOMIC_POSITIONS (angstrom)
Zr               0.9243385653        1.6010013452        0.0000000000
Zr               5.9296928694        0.0000000000       -0.0000000000
Zr              -2.9648464347        5.1352646548        0.0000000000
Zr               2.3143691692        4.0086040470        1.8167690000
Zr               3.1496326617        0.0000000000        1.8167690000
Zr              -1.5748158308        2.7276619530        1.8167690000
Co               0.0000000000        0.0000000000        1.8167690000
Te               3.8891850000        2.2454220000        0.0000000000
Te               0.0000000000        4.4908440000        0.0000000000



     Writing config-only to output data dir ./tmp/Zr6CoTe2.save/ :
     XML data file
     NEW-OLD atomic charge density approx. for the potential

     Check: negative core charge=   -0.000007

     negative rho (up, down):  3.715E-01 0.000E+00

     total cpu time spent up to now is      447.8 secs

     Self-consistent Calculation

     iteration #  1     ecut=    60.00 Ry     beta= 0.40
     Davidson diagonalization with overlap
     ethr =  1.00E-06,  avg # of iterations =  3.0

     Threshold (ethr) on eigenvalues was too large:
     Diagonalizing with lowered threshold

     Davidson diagonalization with overlap
     ethr =  1.09E-08,  avg # of iterations =  4.4

     negative rho (up, down):  3.715E-01 0.000E+00

     total cpu time spent up to now is      512.0 secs

     total energy              =    -702.39914027 Ry
     estimated scf accuracy    <       0.00001566 Ry

     iteration #  2     ecut=    60.00 Ry     beta= 0.40
     Davidson diagonalization with overlap
     ethr =  1.68E-08,  avg # of iterations =  4.9

     negative rho (up, down):  3.715E-01 0.000E+00

     total cpu time spent up to now is      539.1 secs

     total energy              =    -702.39913536 Ry
     estimated scf accuracy    <       0.00009919 Ry

     iteration #  3     ecut=    60.00 Ry     beta= 0.40
     Davidson diagonalization with overlap
     ethr =  1.68E-08,  avg # of iterations =  5.0

     negative rho (up, down):  3.715E-01 0.000E+00

     total cpu time spent up to now is      566.2 secs

     total energy              =    -702.39914236 Ry
     estimated scf accuracy    <       0.00005493 Ry

     iteration #  4     ecut=    60.00 Ry     beta= 0.40
     Davidson diagonalization with overlap
     ethr =  1.68E-08,  avg # of iterations =  3.0

     negative rho (up, down):  3.715E-01 0.000E+00

     total cpu time spent up to now is      590.0 secs

     End of self-consistent calculation

          k = 0.0000 0.0000 0.0000 ( 10025 PWs)   bands (ev):

   -34.9567 -34.9478 -34.9478 -34.5195 -34.4890 -34.4890 -13.2797 -13.1616
   -13.1616 -13.0380 -12.9817 -12.9817 -12.9688 -12.9272 -12.9272 -12.6846
   -12.6710 -12.6710 -12.4932 -12.4193 -12.4193 -12.3932 -12.3932 -12.3932
     0.8105   1.4591   8.1805   8.1805   9.4778   9.4778   9.5412  11.0231
    11.0803  11.6124  11.6124  11.9245  11.9245  12.0368  12.1937  12.1964
    12.1964  13.5651  13.5652  14.4849  14.4849  14.5559  14.6360  14.6360
    14.7451  15.0953  15.0953  15.2692  15.2692  15.4453  15.6404  15.8782

          k = 0.0000 0.0000 0.5352 ( 10073 PWs)   bands (ev):

   -34.9488 -34.9426 -34.9426 -34.5171 -34.4846 -34.4846 -13.2372 -13.1561
   -13.1561 -13.0775 -13.0755 -13.0755 -12.9491 -12.9417 -12.9417 -12.7250
   -12.6256 -12.6256 -12.5122 -12.4890 -12.4760 -12.4760 -12.4044 -12.4044
     1.3144   1.6225   8.7598   8.7598   9.2565   9.3641   9.3641   9.7224
    10.3004  11.6897  11.9240  11.9240  11.9285  11.9285  12.6100  12.6640
    12.6640  13.3297  13.3297  13.5913  13.5913  13.7061  14.0992  14.0992
    14.6860  14.7753  15.2514  15.2514  15.4067  16.0252  16.0253  16.6403

          k = 0.0000 0.0000-1.0704 ( 10072 PWs)   bands (ev):

   -34.9408 -34.9375 -34.9375 -34.5146 -34.4801 -34.4801 -13.1915 -13.1866
   -13.1866 -13.1526 -13.1526 -13.1457 -12.9191 -12.9191 -12.8634 -12.8042
   -12.6065 -12.6065 -12.5798 -12.5343 -12.4865 -12.4865 -12.4508 -12.4508
     1.8093   1.9761   7.5082   8.6844   8.9565   8.9565   9.8341   9.8341
    11.3005  11.5183  11.5183  12.0610  12.0610  12.4142  12.5620  12.5650
    12.9292  12.9292  13.4091  13.4091  13.7431  13.7431  14.1519  14.1519
    14.2775  14.3528  14.3528  14.4716  16.3289  16.3289  16.4549  16.7035

          k = 0.0000 0.3849 0.0000 ( 10070 PWs)   bands (ev):

   -34.9542 -34.9496 -34.9485 -34.5221 -34.4884 -34.4872 -13.2514 -13.1912
   -13.1796 -13.0426 -12.9941 -12.9571 -12.9357 -12.9306 -12.9216 -12.7963
   -12.6297 -12.5550 -12.5019 -12.4702 -12.4305 -12.4104 -12.3891 -12.3798
     0.9530   1.3188   7.9738   8.1479   8.9787   9.4972  10.2530  11.1147
    11.2737  11.5832  11.7643  11.8303  12.0634  12.2030  12.2875  12.2935
    12.3955  12.9936  13.0384  14.1484  14.4980  14.5779  14.8008  14.9257
    15.0053  15.0506  15.1600  15.2648  15.4337  15.4525  15.5704  15.6025

          k = 0.0000 0.3849 0.5352 ( 10083 PWs)   bands (ev):

   -34.9471 -34.9439 -34.9430 -34.5183 -34.4843 -34.4837 -13.2216 -13.1752
   -13.1611 -13.0827 -13.0725 -13.0431 -12.9827 -12.9427 -12.9201 -12.7616
   -12.6242 -12.5955 -12.5154 -12.4951 -12.4666 -12.4465 -12.4267 -12.4159
     1.3887   1.5591   8.5251   8.6536   9.0527   9.3409   9.5556   9.7975
    10.6527  11.6778  11.8868  11.9713  12.0331  12.0768  12.5833  12.7725
    12.8797  12.9783  13.1741  13.5021  13.6046  13.8533  13.9329  14.2058
    14.6017  14.8940  15.3108  15.4779  15.6785  15.8547  15.9730  16.2610

          k = 0.0000 0.3849-1.0704 ( 10056 PWs)   bands (ev):

   -34.9401 -34.9382 -34.9375 -34.5145 -34.4801 -34.4801 -13.1948 -13.1921
   -13.1839 -13.1602 -13.1368 -13.1247 -12.9644 -12.9036 -12.8477 -12.8079
   -12.6548 -12.6210 -12.5450 -12.5307 -12.4737 -12.4733 -12.4565 -12.4516
     1.8375   1.9425   7.6958   8.3531   8.9864   9.1704   9.6388   9.6984
    11.0823  11.8676  11.9159  11.9726  12.0761  12.3197  12.4488  12.6883
    12.8835  12.9881  13.1165  13.3144  13.4504  13.6927  13.7275  13.8149
    14.7175  14.9511  15.1459  15.3130  16.0458  16.2550  16.5824  16.6458

          k = 0.3333 0.5774 0.0000 ( 10158 PWs)   bands (ev):

   -34.9512 -34.9512 -34.9498 -34.5233 -34.4873 -34.4872 -13.2205 -13.2205
   -13.1881 -13.0023 -13.0023 -12.9767 -12.9425 -12.9425 -12.9386 -12.7562
   -12.5913 -12.5913 -12.5063 -12.4548 -12.4548 -12.4153 -12.3819 -12.3819
     1.1373   1.1373   7.6465   8.6255   8.6255   9.7308  10.1749  11.2162
    11.5438  11.5438  11.6776  11.6776  12.2290  12.2290  12.2630  12.2630
    12.5268  12.9509  12.9509  14.3297  14.5853  14.5853  14.6374  14.6898
    14.6898  14.6996  15.1069  15.1779  15.1779  15.7852  15.8872  15.8872

          k = 0.3333 0.5774 0.5352 ( 10074 PWs)   bands (ev):

   -34.9452 -34.9452 -34.9436 -34.5189 -34.4837 -34.4837 -13.2005 -13.2005
   -13.1593 -13.0716 -13.0716 -13.0610 -12.9433 -12.9433 -12.9386 -12.7907
   -12.6039 -12.6039 -12.5169 -12.4613 -12.4613 -12.4408 -12.4405 -12.4405
     1.4770   1.4770   8.3057   8.7956   8.7956   9.6253   9.7089   9.7089
    10.6526  11.6762  11.9010  11.9010  12.1572  12.1572  12.4869  12.7226
    12.7226  13.2475  13.3703  13.5063  13.5063  13.6820  13.6820  14.4939
    14.8289  14.8289  15.3311  15.3311  15.8522  15.9104  15.9104  15.9646

          k = 0.3333 0.5774-1.0704 ( 10014 PWs)   bands (ev):

   -34.9391 -34.9391 -34.9375 -34.5145 -34.4801 -34.4801 -13.1828 -13.1828
   -13.1781 -13.1781 -13.1367 -13.1291 -12.9845 -12.8694 -12.8694 -12.7873
   -12.6622 -12.6621 -12.5290 -12.5036 -12.5036 -12.4639 -12.4500 -12.4500
     1.8884   1.8884   7.9927   7.9927   9.0892   9.4255   9.4255   9.4914
    10.9936  12.0175  12.0175  12.0993  12.0993  12.1360  12.4688  12.8571
    13.0019  13.0019  13.1733  13.1733  13.3711  13.5258  13.5938  13.5938
    15.0439  15.0439  15.6811  15.6811  15.9949  16.2953  16.5047  16.5047

     the Fermi energy is    14.1778 ev

!    total energy              =    -702.39914547 Ry
     estimated scf accuracy    <       0.00000049 Ry
     smearing contrib. (-TS)   =      -0.00378427 Ry
     internal energy E=F+TS    =    -702.39536120 Ry

     The total energy is F=E-TS. E is the sum of the following terms:
     one-electron contribution =    -135.38086579 Ry
     hartree contribution      =     115.61966216 Ry
     xc contribution           =    -147.25506706 Ry
     ewald contribution        =    -535.37909051 Ry

     convergence has been achieved in   4 iterations

     negative rho (up, down):  3.715E-01 0.000E+00

     Forces acting on atoms (cartesian axes, Ry/au):

     atom    1 type  1   force =     0.00119237    0.00206525    0.00000000
     atom    2 type  1   force =    -0.00238475   -0.00000000    0.00000000
     atom    3 type  1   force =     0.00119237   -0.00206525    0.00000000
     atom    4 type  1   force =    -0.00058383   -0.00101123   -0.00000000
     atom    5 type  1   force =     0.00116767   -0.00000000   -0.00000000
     atom    6 type  1   force =    -0.00058383    0.00101123    0.00000000
     atom    7 type  2   force =     0.00000000    0.00000000    0.00000000
     atom    8 type  3   force =    -0.00000000   -0.00000000   -0.00000000
     atom    9 type  3   force =    -0.00000000   -0.00000000    0.00000000

     Total force =     0.004599     Total SCF correction =     0.000115
     Energy error            =      4.7E-05 Ry
     Gradient error          =      2.4E-03 Ry/Bohr

     number of scf cycles    =   2
     number of bfgs steps    =   1

     energy             old  =    -702.3990985338 Ry
     energy             new  =    -702.3991454690 Ry

     CASE: energy            _new < energy            _old

     new trust radius        =       0.0044341358 bohr
     new conv_thr            =       0.0000000100 Ry


ATOMIC_POSITIONS (angstrom)
Zr               0.9255117871        1.6030334250        0.0000000000
Zr               5.9273464258       -0.0000000000        0.0000000000
Zr              -2.9636732129        5.1332325750        0.0000000000
Zr               2.3137955043        4.0076104304        1.8167690000
Zr               3.1507799914       -0.0000000000        1.8167690000
Zr              -1.5753894957        2.7286555696        1.8167690000
Co               0.0000000000        0.0000000000        1.8167690000
Te               3.8891850000        2.2454220000       -0.0000000000
Te               0.0000000000        4.4908440000        0.0000000000



     Writing config-only to output data dir ./tmp/Zr6CoTe2.save/ :
     XML data file
     NEW-OLD atomic charge density approx. for the potential

     Check: negative core charge=   -0.000007

     negative rho (up, down):  3.715E-01 0.000E+00

     total cpu time spent up to now is      597.4 secs

     Self-consistent Calculation

     iteration #  1     ecut=    60.00 Ry     beta= 0.40
     Davidson diagonalization with overlap
     ethr =  1.00E-06,  avg # of iterations =  3.0

     negative rho (up, down):  3.715E-01 0.000E+00

     total cpu time spent up to now is      631.7 secs

     total energy              =    -702.39909317 Ry
     estimated scf accuracy    <       0.00014434 Ry

     iteration #  2     ecut=    60.00 Ry     beta= 0.40
     Davidson diagonalization with overlap
     ethr =  1.55E-07,  avg # of iterations =  5.3

     negative rho (up, down):  3.715E-01 0.000E+00

     total cpu time spent up to now is      661.0 secs

     total energy              =    -702.39890225 Ry
     estimated scf accuracy    <       0.00528021 Ry

     iteration #  3     ecut=    60.00 Ry     beta= 0.40
     Davidson diagonalization with overlap
     ethr =  1.55E-07,  avg # of iterations =  5.2

     negative rho (up, down):  3.715E-01 0.000E+00

     total cpu time spent up to now is      690.3 secs

     total energy              =    -702.39917630 Ry
     estimated scf accuracy    <       0.00000349 Ry

     iteration #  4     ecut=    60.00 Ry     beta= 0.40
     Davidson diagonalization with overlap
     ethr =  3.75E-09,  avg # of iterations =  4.2

     negative rho (up, down):  3.715E-01 0.000E+00

     total cpu time spent up to now is      716.7 secs

     total energy              =    -702.39917714 Ry
     estimated scf accuracy    <       0.00000082 Ry

     iteration #  5     ecut=    60.00 Ry     beta= 0.40
     Davidson diagonalization with overlap
     ethr =  8.84E-10,  avg # of iterations =  2.9

     negative rho (up, down):  3.715E-01 0.000E+00

     total cpu time spent up to now is      740.5 secs

     total energy              =    -702.39917726 Ry
     estimated scf accuracy    <       0.00000004 Ry

     iteration #  6     ecut=    60.00 Ry     beta= 0.40
     Davidson diagonalization with overlap
     ethr =  3.99E-11,  avg # of iterations =  5.1

     negative rho (up, down):  3.715E-01 0.000E+00

     total cpu time spent up to now is      772.1 secs

     total energy              =    -702.39917727 Ry
     estimated scf accuracy    <       0.00000002 Ry

     iteration #  7     ecut=    60.00 Ry     beta= 0.40
     Davidson diagonalization with overlap
     ethr =  2.60E-11,  avg # of iterations =  4.2

     negative rho (up, down):  3.715E-01 0.000E+00

     total cpu time spent up to now is      798.1 secs

     total energy              =    -702.39917727 Ry
     estimated scf accuracy    <       0.00000001 Ry

     iteration #  8     ecut=    60.00 Ry     beta= 0.40
     Davidson diagonalization with overlap
     ethr =  1.55E-11,  avg # of iterations =  3.7

     negative rho (up, down):  3.715E-01 0.000E+00

     total cpu time spent up to now is      822.6 secs

     End of self-consistent calculation

          k = 0.0000 0.0000 0.0000 ( 10025 PWs)   bands (ev):

   -34.9559 -34.9469 -34.9469 -34.5215 -34.4916 -34.4916 -13.2796 -13.1611
   -13.1611 -13.0377 -12.9812 -12.9812 -12.9683 -12.9265 -12.9265 -12.6825
   -12.6727 -12.6727 -12.4965 -12.4216 -12.4216 -12.3955 -12.3955 -12.3948
     0.8082   1.4572   8.1787   8.1787   9.4760   9.4760   9.5415  11.0287
    11.0765  11.6118  11.6118  11.9269  11.9269  12.0396  12.1915  12.2024
    12.2024  13.5635  13.5635  14.4837  14.4837  14.5556  14.6352  14.6352
    14.7475  15.0962  15.0962  15.2698  15.2698  15.4483  15.6351  15.8762

          k = 0.0000 0.0000 0.5352 ( 10073 PWs)   bands (ev):

   -34.9479 -34.9417 -34.9417 -34.5191 -34.4872 -34.4872 -13.2370 -13.1556
   -13.1556 -13.0773 -13.0752 -13.0752 -12.9483 -12.9413 -12.9413 -12.7230
   -12.6268 -12.6268 -12.5156 -12.4908 -12.4789 -12.4789 -12.4061 -12.4061
     1.3122   1.6202   8.7586   8.7586   9.2545   9.3611   9.3611   9.7197
    10.3012  11.6961  11.9262  11.9262  11.9324  11.9324  12.6129  12.6633
    12.6633  13.3285  13.3285  13.5891  13.5891  13.7116  14.1005  14.1005
    14.6828  14.7768  15.2500  15.2500  15.4061  16.0260  16.0260  16.6354

          k = 0.0000 0.0000-1.0704 ( 10072 PWs)   bands (ev):

   -34.9399 -34.9365 -34.9365 -34.5167 -34.4827 -34.4827 -13.1912 -13.1863
   -13.1863 -13.1522 -13.1522 -13.1456 -12.9188 -12.9188 -12.8616 -12.8027
   -12.6076 -12.6076 -12.5819 -12.5379 -12.4895 -12.4895 -12.4522 -12.4522
     1.8065   1.9741   7.5058   8.6826   8.9547   8.9547   9.8310   9.8310
    11.3036  11.5200  11.5200  12.0631  12.0631  12.4162  12.5644  12.5725
    12.9279  12.9279  13.4078  13.4078  13.7433  13.7433  14.1515  14.1515
    14.2784  14.3540  14.3540  14.4687  16.3280  16.3280  16.4579  16.7065

          k = 0.0000 0.3849 0.0000 ( 10070 PWs)   bands (ev):

   -34.9533 -34.9487 -34.9476 -34.5241 -34.4910 -34.4898 -13.2513 -13.1908
   -13.1792 -13.0423 -12.9937 -12.9566 -12.9351 -12.9300 -12.9212 -12.7952
   -12.6312 -12.5555 -12.5053 -12.4725 -12.4327 -12.4122 -12.3914 -12.3818
     0.9508   1.3168   7.9722   8.1463   8.9769   9.4951  10.2528  11.1211
    11.2704  11.5837  11.7652  11.8303  12.0644  12.2084  12.2906  12.2949
    12.3966  12.9934  13.0384  14.1485  14.4970  14.5756  14.7989  14.9238
    15.0041  15.0528  15.1612  15.2667  15.4310  15.4505  15.5712  15.6032

          k = 0.0000 0.3849 0.5352 ( 10083 PWs)   bands (ev):

   -34.9462 -34.9430 -34.9421 -34.5203 -34.4869 -34.4863 -13.2214 -13.1748
   -13.1607 -13.0823 -13.0721 -13.0428 -12.9823 -12.9423 -12.9193 -12.7600
   -12.6255 -12.5964 -12.5189 -12.4975 -12.4694 -12.4488 -12.4283 -12.4176
     1.3865   1.5568   8.5233   8.6519   9.0501   9.3387   9.5534   9.7948
    10.6534  11.6838  11.8896  11.9760  12.0357  12.0804  12.5838  12.7729
    12.8815  12.9795  13.1726  13.5007  13.6044  13.8509  13.9329  14.2075
    14.6005  14.8949  15.3101  15.4774  15.6773  15.8545  15.9724  16.2636

          k = 0.0000 0.3849-1.0704 ( 10056 PWs)   bands (ev):

   -34.9392 -34.9372 -34.9366 -34.5166 -34.4827 -34.4827 -13.1945 -13.1917
   -13.1836 -13.1597 -13.1364 -13.1245 -12.9639 -12.9031 -12.8465 -12.8067
   -12.6561 -12.6220 -12.5471 -12.5343 -12.4767 -12.4748 -12.4577 -12.4544
     1.8349   1.9403   7.6935   8.3510   8.9846   9.1681   9.6364   9.6955
    11.0850  11.8705  11.9192  11.9752  12.0789  12.3202  12.4544  12.6911
    12.8825  12.9876  13.1147  13.3139  13.4511  13.6939  13.7271  13.8150
    14.7180  14.9510  15.1466  15.3088  16.0433  16.2543  16.5846  16.6429

          k = 0.3333 0.5774 0.0000 ( 10158 PWs)   bands (ev):

   -34.9503 -34.9503 -34.9489 -34.5254 -34.4898 -34.4898 -13.2202 -13.2202
   -13.1877 -13.0019 -13.0019 -12.9763 -12.9419 -12.9419 -12.9379 -12.7541
   -12.5931 -12.5931 -12.5097 -12.4567 -12.4567 -12.4171 -12.3841 -12.3841
     1.1351   1.1351   7.6453   8.6235   8.6235   9.7278  10.1756  11.2234
    11.5418  11.5418  11.6778  11.6778  12.2334  12.2334  12.2648  12.2648
    12.5286  12.9499  12.9499  14.3311  14.5851  14.5851  14.6366  14.6892
    14.6892  14.6970  15.1071  15.1754  15.1754  15.7863  15.8897  15.8897

          k = 0.3333 0.5774 0.5352 ( 10074 PWs)   bands (ev):

   -34.9443 -34.9443 -34.9427 -34.5210 -34.4863 -34.4863 -13.2001 -13.2001
   -13.1589 -13.0711 -13.0711 -13.0608 -12.9429 -12.9429 -12.9379 -12.7891
   -12.6051 -12.6051 -12.5204 -12.4639 -12.4639 -12.4425 -12.4425 -12.4420
     1.4748   1.4748   8.3044   8.7931   8.7931   9.6223   9.7066   9.7066
    10.6537  11.6824  11.9044  11.9044  12.1609  12.1609  12.4898  12.7232
    12.7232  13.2485  13.3673  13.5069  13.5069  13.6797  13.6797  14.4952
    14.8288  14.8288  15.3318  15.3318  15.8502  15.9088  15.9088  15.9644

          k = 0.3333 0.5774-1.0704 ( 10014 PWs)   bands (ev):

   -34.9382 -34.9382 -34.9366 -34.5165 -34.4827 -34.4827 -13.1825 -13.1825
   -13.1777 -13.1777 -13.1366 -13.1286 -12.9842 -12.8685 -12.8685 -12.7857
   -12.6636 -12.6636 -12.5325 -12.5055 -12.5055 -12.4647 -12.4528 -12.4528
     1.8860   1.8860   7.9904   7.9904   9.0877   9.4230   9.4230   9.4884
    10.9965  12.0208  12.0208  12.1038  12.1038  12.1365  12.4743  12.8530
    13.0015  13.0015  13.1729  13.1729  13.3727  13.5301  13.5927  13.5927
    15.0441  15.0441  15.6795  15.6795  15.9901  16.2932  16.5062  16.5063

     the Fermi energy is    14.1788 ev

!    total energy              =    -702.39917728 Ry
     estimated scf accuracy    <          6.7E-10 Ry
     smearing contrib. (-TS)   =      -0.00377498 Ry
     internal energy E=F+TS    =    -702.39540230 Ry

     The total energy is F=E-TS. E is the sum of the following terms:
     one-electron contribution =    -135.04926725 Ry
     hartree contribution      =     115.45136901 Ry
     xc contribution           =    -147.25303591 Ry
     ewald contribution        =    -535.54446816 Ry

     convergence has been achieved in   8 iterations

     negative rho (up, down):  3.715E-01 0.000E+00

     Forces acting on atoms (cartesian axes, Ry/au):

     atom    1 type  1   force =     0.00052559    0.00091035    0.00000000
     atom    2 type  1   force =    -0.00105119    0.00000000   -0.00000000
     atom    3 type  1   force =     0.00052559   -0.00091035   -0.00000000
     atom    4 type  1   force =    -0.00044334   -0.00076789    0.00000000
     atom    5 type  1   force =     0.00088669    0.00000000    0.00000000
     atom    6 type  1   force =    -0.00044334    0.00076789    0.00000000
     atom    7 type  2   force =     0.00000000    0.00000000    0.00000000
     atom    8 type  3   force =     0.00000000   -0.00000000    0.00000000
     atom    9 type  3   force =     0.00000000   -0.00000000    0.00000000

     Total force =     0.002382     Total SCF correction =     0.000053
     Energy error            =      3.2E-05 Ry
     Gradient error          =      1.1E-03 Ry/Bohr

     number of scf cycles    =   3
     number of bfgs steps    =   2

     energy             old  =    -702.3991454690 Ry
     energy             new  =    -702.3991772759 Ry

     CASE: energy            _new < energy            _old

     new trust radius        =       0.0043340711 bohr
     new conv_thr            =       0.0000000100 Ry


ATOMIC_POSITIONS (angstrom)
Zr               0.9266585329        1.6050196471        0.0000000000
Zr               5.9250529342       -0.0000000000       -0.0000000000
Zr              -2.9625264671        5.1312463529       -0.0000000000
Zr               2.3130385919        4.0062994196        1.8167690000
Zr               3.1522938162       -0.0000000000        1.8167690000
Zr              -1.5761464081        2.7299665804        1.8167690000
Co               0.0000000000        0.0000000000        1.8167690000
Te               3.8891850000        2.2454220000       -0.0000000000
Te               0.0000000000        4.4908440000        0.0000000000



     Writing config-only to output data dir ./tmp/Zr6CoTe2.save/ :
     XML data file
     NEW-OLD atomic charge density approx. for the potential

     Check: negative core charge=   -0.000007

     negative rho (up, down):  3.714E-01 0.000E+00

     total cpu time spent up to now is      830.0 secs

     Self-consistent Calculation

     iteration #  1     ecut=    60.00 Ry     beta= 0.40
     Davidson diagonalization with overlap
     ethr =  1.00E-06,  avg # of iterations =  3.0

     Threshold (ethr) on eigenvalues was too large:
     Diagonalizing with lowered threshold

     Davidson diagonalization with overlap
     ethr =  5.75E-08,  avg # of iterations =  3.1

     negative rho (up, down):  3.714E-01 0.000E+00

     total cpu time spent up to now is      888.7 secs

     total energy              =    -702.39915086 Ry
     estimated scf accuracy    <       0.00006874 Ry

     iteration #  2     ecut=    60.00 Ry     beta= 0.40
     Davidson diagonalization with overlap
     ethr =  7.39E-08,  avg # of iterations =  5.6

     negative rho (up, down):  3.714E-01 0.000E+00

     total cpu time spent up to now is      918.4 secs

     total energy              =    -702.39906762 Ry
     estimated scf accuracy    <       0.00224285 Ry

     iteration #  3     ecut=    60.00 Ry     beta= 0.40
     Davidson diagonalization with overlap
     ethr =  7.39E-08,  avg # of iterations =  5.3

     negative rho (up, down):  3.714E-01 0.000E+00

     total cpu time spent up to now is      947.1 secs

     total energy              =    -702.39918472 Ry
     estimated scf accuracy    <       0.00000990 Ry

     iteration #  4     ecut=    60.00 Ry     beta= 0.40
     Davidson diagonalization with overlap
     ethr =  1.06E-08,  avg # of iterations =  3.2

     negative rho (up, down):  3.714E-01 0.000E+00

     total cpu time spent up to now is      971.6 secs

     total energy              =    -702.39918629 Ry
     estimated scf accuracy    <       0.00000090 Ry

     iteration #  5     ecut=    60.00 Ry     beta= 0.40
     Davidson diagonalization with overlap
     ethr =  9.65E-10,  avg # of iterations =  4.4

     negative rho (up, down):  3.714E-01 0.000E+00

     total cpu time spent up to now is      996.5 secs

     total energy              =    -702.39918638 Ry
     estimated scf accuracy    <       0.00000019 Ry

     iteration #  6     ecut=    60.00 Ry     beta= 0.40
     Davidson diagonalization with overlap
     ethr =  2.03E-10,  avg # of iterations =  3.9

     negative rho (up, down):  3.714E-01 0.000E+00

     total cpu time spent up to now is     1021.4 secs

     total energy              =    -702.39918642 Ry
     estimated scf accuracy    <       0.00000002 Ry

     iteration #  7     ecut=    60.00 Ry     beta= 0.40
     Davidson diagonalization with overlap
     ethr =  2.09E-11,  avg # of iterations =  4.9

     negative rho (up, down):  3.714E-01 0.000E+00

     total cpu time spent up to now is     1048.3 secs

     End of self-consistent calculation

          k = 0.0000 0.0000 0.0000 ( 10025 PWs)   bands (ev):

   -34.9558 -34.9468 -34.9468 -34.5226 -34.4933 -34.4933 -13.2802 -13.1612
   -13.1612 -13.0375 -12.9810 -12.9810 -12.9685 -12.9266 -12.9266 -12.6803
   -12.6739 -12.6739 -12.4991 -12.4233 -12.4233 -12.3968 -12.3968 -12.3956
     0.8055   1.4551   8.1763   8.1763   9.4741   9.4741   9.5422  11.0345
    11.0719  11.6114  11.6114  11.9298  11.9298  12.0424  12.1893  12.2089
    12.2089  13.5619  13.5619  14.4822  14.4822  14.5553  14.6342  14.6342
    14.7499  15.0972  15.0972  15.2710  15.2710  15.4512  15.6299  15.8739

          k = 0.0000 0.0000 0.5352 ( 10073 PWs)   bands (ev):

   -34.9478 -34.9416 -34.9416 -34.5202 -34.4888 -34.4888 -13.2375 -13.1557
   -13.1557 -13.0777 -13.0752 -13.0752 -12.9478 -12.9415 -12.9415 -12.7209
   -12.6276 -12.6276 -12.5183 -12.4918 -12.4809 -12.4809 -12.4072 -12.4072
     1.3096   1.6176   8.7570   8.7570   9.2520   9.3578   9.3578   9.7166
    10.3024  11.7027  11.9290  11.9290  11.9366  11.9366  12.6161  12.6629
    12.6629  13.3274  13.3274  13.5868  13.5868  13.7171  14.1018  14.1018
    14.6791  14.7792  15.2492  15.2492  15.4057  16.0265  16.0265  16.6299

          k = 0.0000 0.0000-1.0704 ( 10072 PWs)   bands (ev):

   -34.9397 -34.9364 -34.9364 -34.5178 -34.4843 -34.4843 -13.1915 -13.1864
   -13.1864 -13.1523 -13.1523 -13.1461 -12.9190 -12.9190 -12.8605 -12.8007
   -12.6083 -12.6083 -12.5833 -12.5406 -12.4918 -12.4918 -12.4529 -12.4529
     1.8034   1.9718   7.5030   8.6806   8.9527   8.9527   9.8278   9.8278
    11.3074  11.5217  11.5217  12.0656  12.0656  12.4187  12.5670  12.5802
    12.9270  12.9270  13.4068  13.4068  13.7431  13.7431  14.1516  14.1516
    14.2803  14.3552  14.3552  14.4650  16.3269  16.3269  16.4611  16.7098

          k = 0.0000 0.3849 0.0000 ( 10070 PWs)   bands (ev):

   -34.9532 -34.9485 -34.9474 -34.5253 -34.4927 -34.4914 -13.2517 -13.1909
   -13.1793 -13.0421 -12.9936 -12.9568 -12.9351 -12.9300 -12.9213 -12.7938
   -12.6322 -12.5559 -12.5080 -12.4741 -12.4343 -12.4132 -12.3926 -12.3830
     0.9482   1.3145   7.9703   8.1445   8.9749   9.4929  10.2529  11.1278
    11.2665  11.5846  11.7665  11.8301  12.0657  12.2142  12.2940  12.2966
    12.3977  12.9932  13.0385  14.1485  14.4960  14.5734  14.7971  14.9221
    15.0027  15.0552  15.1625  15.2687  15.4285  15.4485  15.5720  15.6040

          k = 0.0000 0.3849 0.5352 ( 10083 PWs)   bands (ev):

   -34.9461 -34.9428 -34.9419 -34.5215 -34.4885 -34.4879 -13.2217 -13.1750
   -13.1608 -13.0825 -13.0721 -13.0431 -12.9820 -12.9423 -12.9192 -12.7581
   -12.6263 -12.5970 -12.5216 -12.4990 -12.4714 -12.4503 -12.4292 -12.4186
     1.3839   1.5543   8.5214   8.6499   9.0471   9.3361   9.5510   9.7918
    10.6546  11.6902  11.8926  11.9811  12.0388  12.0846  12.5845  12.7734
    12.8835  12.9810  13.1711  13.4991  13.6042  13.8484  13.9330  14.2094
    14.5996  14.8960  15.3097  15.4774  15.6757  15.8545  15.9713  16.2663

          k = 0.0000 0.3849-1.0704 ( 10056 PWs)   bands (ev):

   -34.9390 -34.9371 -34.9364 -34.5177 -34.4844 -34.4843 -13.1947 -13.1920
   -13.1837 -13.1599 -13.1365 -13.1251 -12.9638 -12.9033 -12.8459 -12.8049
   -12.6568 -12.6225 -12.5484 -12.5370 -12.4789 -12.4756 -12.4583 -12.4565
     1.8319   1.9378   7.6907   8.3487   8.9826   9.1655   9.6339   9.6923
    11.0885  11.8736  11.9228  11.9783  12.0822  12.3212  12.4600  12.6938
    12.8814  12.9872  13.1129  13.3132  13.4519  13.6952  13.7268  13.8153
    14.7187  14.9512  15.1479  15.3042  16.0412  16.2531  16.5869  16.6400

          k = 0.3333 0.5774 0.0000 ( 10158 PWs)   bands (ev):

   -34.9502 -34.9502 -34.9487 -34.5265 -34.4915 -34.4915 -13.2204 -13.2204
   -13.1879 -13.0018 -13.0018 -12.9762 -12.9421 -12.9421 -12.9379 -12.7520
   -12.5944 -12.5944 -12.5125 -12.4580 -12.4580 -12.4181 -12.3853 -12.3853
     1.1327   1.1327   7.6440   8.6213   8.6213   9.7245  10.1768  11.2309
    11.5393  11.5393  11.6781  11.6781  12.2381  12.2381  12.2670  12.2670
    12.5308  12.9488  12.9488  14.3323  14.5851  14.5851  14.6361  14.6887
    14.6887  14.6943  15.1068  15.1731  15.1731  15.7871  15.8920  15.8920

          k = 0.3333 0.5774 0.5352 ( 10074 PWs)   bands (ev):

   -34.9441 -34.9441 -34.9426 -34.5221 -34.4879 -34.4879 -13.2004 -13.2004
   -13.1590 -13.0712 -13.0712 -13.0611 -12.9430 -12.9430 -12.9379 -12.7870
   -12.6059 -12.6059 -12.5231 -12.4658 -12.4658 -12.4437 -12.4437 -12.4425
     1.4722   1.4722   8.3030   8.7903   8.7903   9.6190   9.7039   9.7039
    10.6554  11.6890  11.9081  11.9081  12.1650  12.1650  12.4930  12.7238
    12.7238  13.2495  13.3640  13.5076  13.5076  13.6774  13.6774  14.4969
    14.8285  14.8285  15.3332  15.3332  15.8487  15.9070  15.9070  15.9639

          k = 0.3333 0.5774-1.0704 ( 10014 PWs)   bands (ev):

   -34.9380 -34.9380 -34.9364 -34.5177 -34.4844 -34.4844 -13.1827 -13.1827
   -13.1779 -13.1779 -13.1371 -13.1287 -12.9841 -12.8684 -12.8684 -12.7836
   -12.6645 -12.6645 -12.5352 -12.5067 -12.5067 -12.4650 -12.4549 -12.4549
     1.8833   1.8833   7.9878   7.9878   9.0860   9.4203   9.4203   9.4850
    11.0001  12.0247  12.0247  12.1086  12.1086  12.1372  12.4800  12.8487
    13.0008  13.0008  13.1724  13.1724  13.3746  13.5349  13.5920  13.5920
    15.0448  15.0448  15.6782  15.6782  15.9854  16.2902  16.5079  16.5080

     the Fermi energy is    14.1800 ev

!    total energy              =    -702.39918642 Ry
     estimated scf accuracy    <          6.7E-09 Ry
     smearing contrib. (-TS)   =      -0.00376406 Ry
     internal energy E=F+TS    =    -702.39542236 Ry

     The total energy is F=E-TS. E is the sum of the following terms:
     one-electron contribution =    -134.70882392 Ry
     hartree contribution      =     115.27973597 Ry
     xc contribution           =    -147.25182818 Ry
     ewald contribution        =    -535.71450624 Ry

     convergence has been achieved in   7 iterations

     negative rho (up, down):  3.714E-01 0.000E+00

     Forces acting on atoms (cartesian axes, Ry/au):

     atom    1 type  1   force =    -0.00024351   -0.00042176    0.00000000
     atom    2 type  1   force =     0.00048701    0.00000000   -0.00000000
     atom    3 type  1   force =    -0.00024351    0.00042176    0.00000000
     atom    4 type  1   force =    -0.00019667   -0.00034064    0.00000000
     atom    5 type  1   force =     0.00039333   -0.00000000    0.00000000
     atom    6 type  1   force =    -0.00019667    0.00034064    0.00000000
     atom    7 type  2   force =     0.00000000   -0.00000000    0.00000000
     atom    8 type  3   force =     0.00000000    0.00000000    0.00000000
     atom    9 type  3   force =     0.00000000   -0.00000000   -0.00000000

     Total force =     0.001084     Total SCF correction =     0.000019
     Energy error            =      9.1E-06 Ry
     Gradient error          =      4.9E-04 Ry/Bohr

     bfgs converged in   4 scf cycles and   3 bfgs steps
     (criteria: energy <  1.0E-04 Ry, force <  1.0E-03 Ry/Bohr)

     End of BFGS Geometry Optimization

     Final energy             =    -702.3991864237 Ry

     File ./tmp/Zr6CoTe2.bfgs deleted, as requested
Begin final coordinates

ATOMIC_POSITIONS (angstrom)
Zr               0.9266585329        1.6050196471        0.0000000000
Zr               5.9250529342       -0.0000000000       -0.0000000000
Zr              -2.9625264671        5.1312463529       -0.0000000000
Zr               2.3130385919        4.0062994196        1.8167690000
Zr               3.1522938162       -0.0000000000        1.8167690000
Zr              -1.5761464081        2.7299665804        1.8167690000
Co               0.0000000000        0.0000000000        1.8167690000
Te               3.8891850000        2.2454220000       -0.0000000000
Te               0.0000000000        4.4908440000        0.0000000000
End final coordinates



     Writing all to output data dir ./tmp/Zr6CoTe2.save/ :
     XML data file, charge density, pseudopotentials, collected wavefunctions

     init_run     :     16.45s CPU     19.00s WALL (       1 calls)
     electrons    :    986.85s CPU   1006.81s WALL (       4 calls)
     update_pot   :      0.66s CPU      0.68s WALL (       3 calls)
     forces       :     24.43s CPU     25.24s WALL (       4 calls)

     Called by init_run:
     wfcinit      :     14.89s CPU     16.76s WALL (       1 calls)
     potinit      :      0.32s CPU      0.49s WALL (       1 calls)
     hinit0       :      0.47s CPU      0.50s WALL (       1 calls)

     Called by electrons:
     c_bands      :    833.81s CPU    840.23s WALL (      36 calls)
     sum_band     :    121.79s CPU    129.36s WALL (      36 calls)
     v_of_rho     :      6.76s CPU      7.04s WALL (      38 calls)
     newd         :     26.00s CPU     32.66s WALL (      38 calls)
     mix_rho      :      1.13s CPU      1.16s WALL (      36 calls)

     Called by c_bands:
     init_us_2    :      6.89s CPU      6.93s WALL (     693 calls)
     cegterg      :    822.90s CPU    829.26s WALL (     324 calls)

     Called by *egterg:
     cdiaghg      :     11.11s CPU     11.16s WALL (    1697 calls)
     h_psi        :    439.49s CPU    445.92s WALL (    1751 calls)
     s_psi        :     92.95s CPU     93.28s WALL (    1751 calls)
     g_psi        :      0.94s CPU      0.95s WALL (    1418 calls)

     Called by h_psi:
     h_psi:calbec :    105.99s CPU    106.69s WALL (    1751 calls)
     vloc_psi     :    238.92s CPU    244.03s WALL (    1751 calls)
     add_vuspsi   :     92.81s CPU     93.36s WALL (    1751 calls)

     General routines
     calbec       :    162.72s CPU    163.64s WALL (    2219 calls)
     fft          :      4.88s CPU      5.18s WALL (     535 calls)
     ffts         :      0.29s CPU      0.32s WALL (      74 calls)
     fftw         :    214.37s CPU    218.76s WALL (  115748 calls)
     interpolate  :      0.62s CPU      0.66s WALL (      38 calls)

     Parallel routines

     PWSCF        :  17m10.78s CPU  17m34.71s WALL


   This run was terminated on:  12: 4:38   2Aug2025            

=------------------------------------------------------------------------------=
   JOB DONE.
=------------------------------------------------------------------------------=
