
     Program PWSCF v.7.4.1 starts on  2Aug2025 at 13: 0:15 

     This program is part of the open-source Quantum ESPRESSO suite
     for quantum simulation of materials; please cite
         "P. Giannozzi et al., J. Phys.:Condens. Matter 21 395502 (2009);
         "P. Giannozzi et al., J. Phys.:Condens. Matter 29 465901 (2017);
         "P. Giannozzi et al., J. Chem. Phys. 152 154105 (2020);
          URL http://www.quantum-espresso.org", 
     in publications or presentations arising from this work. More details at
     http://www.quantum-espresso.org/quote

     Parallel version (MPI), running on     2 processors

     MPI processes distributed on     1 nodes
     1237 MiB available memory on the printing compute node when the environment starts

     Waiting for input...
     Reading input from standard input
Warning: card &CELL ignored
Warning: card / ignored

     Current dimensions of program PWSCF are:
     Max number of different atomic species (ntypx) = 10
     Max number of k-points (npk) =  40000
     Max angular momentum in pseudopotentials (lmaxx) =  4

     R & G space division:  proc/nbgrp/npool/nimage =       2
     Subspace diagonalization in iterative solution of the eigenvalue problem:
     a serial algorithm will be used


     Parallelization info
     --------------------
     sticks:   dense  smooth     PW     G-vecs:    dense   smooth      PW
     Min        2688    1785    513                74108    40291    6162
     Max        2689    1786    514                74109    40292    6163
     Sum        5377    3571   1027               148217    80583   12325

     Using Slab Decomposition



     bravais-lattice index     =            4
     lattice parameter (alat)  =      14.6990  a.u.
     unit-cell volume          =    1284.7966 (a.u.)^3
     number of atoms/cell      =            6
     number of atomic types    =            1
     number of electrons       =        72.00
     number of Kohn-Sham states=           43
     kinetic-energy cutoff     =      60.0000  Ry
     charge density cutoff     =     360.0000  Ry
     scf convergence threshold =      1.0E-06
     mixing beta               =       0.4000
     number of iterations used =            8  plain     mixing
     energy convergence thresh.=      1.0E-04
     force convergence thresh. =      1.0E-03
     Exchange-correlation= SLA  PW   PBE  PBE
                           (   1   4   3   4   0   0   0)
     nstep                     =          100


     celldm(1)=  14.698989  celldm(2)=   0.000000  celldm(3)=   0.467134
     celldm(4)=   0.000000  celldm(5)=   0.000000  celldm(6)=   0.000000

     crystal axes: (cart. coord. in units of alat)
               a(1) = (   1.000000   0.000000   0.000000 )  
               a(2) = (  -0.500000   0.866025   0.000000 )  
               a(3) = (   0.000000   0.000000   0.467134 )  

     reciprocal axes: (cart. coord. in units 2 pi/alat)
               b(1) = (  1.000000  0.577350 -0.000000 )  
               b(2) = (  0.000000  1.154701  0.000000 )  
               b(3) = (  0.000000 -0.000000  2.140714 )  


     PseudoPot. # 1 for Zr read from file:
     /home/tauqeer/Zr6MTe2/sudopoten/Zr.pbe-nsp-van.upf
     MD5 check sum: f06f7249673c13908de31cca45056a07
     Pseudo is Ultrasoft + core correction, Zval = 12.0
     Generated by new atomic code, or converted to UPF format
     Using radial grid of  887 points,  6 beta functions with: 
                l(1) =   0
                l(2) =   0
                l(3) =   1
                l(4) =   1
                l(5) =   2
                l(6) =   2
     Q(r) pseudized with  6 coefficients,  rinner =    1.200   1.200   1.200
                                                       1.200   1.200

     atomic species   valence    mass     pseudopotential
     Zr               12.00    91.22400     Zr( 1.00)

     12 Sym. Ops. (no inversion) found



   Cartesian axes

     site n.     atom                  positions (alat units)
         1        Zr     tau(   1) = (   0.1186974   0.2055899   0.0000000  )
         2        Zr     tau(   2) = (   0.7626053   0.0000000   0.0000000  )
         3        Zr     tau(   3) = (  -0.3813026   0.6604355   0.0000000  )
         4        Zr     tau(   4) = (   0.2975946   0.5154489   0.2335668  )
         5        Zr     tau(   5) = (   0.4048109   0.0000000   0.2335668  )
         6        Zr     tau(   6) = (  -0.2024054   0.3505765   0.2335668  )

     number of k points=     9  Gaussian smearing, width (Ry)=  0.0100
                       cart. coord. in units 2pi/alat
        k(    1) = (   0.0000000   0.0000000   0.0000000), wk =   0.0555556
        k(    2) = (   0.0000000   0.0000000   0.5351785), wk =   0.1111111
        k(    3) = (   0.0000000   0.0000000  -1.0703570), wk =   0.0555556
        k(    4) = (   0.0000000   0.3849002   0.0000000), wk =   0.3333333
        k(    5) = (   0.0000000   0.3849002   0.5351785), wk =   0.6666667
        k(    6) = (   0.0000000   0.3849002  -1.0703570), wk =   0.3333333
        k(    7) = (   0.3333333   0.5773503   0.0000000), wk =   0.1111111
        k(    8) = (   0.3333333   0.5773503   0.5351785), wk =   0.2222222
        k(    9) = (   0.3333333   0.5773503  -1.0703570), wk =   0.1111111

     Dense  grid:   148217 G-vectors     FFT dimensions: (  90,  90,  45)

     Smooth grid:    80583 G-vectors     FFT dimensions: (  75,  75,  36)

     Estimated max dynamical RAM per process >     315.27 MB

     Estimated total dynamical RAM >     630.54 MB

     Initial potential from superposition of free atoms

     starting charge      71.9871, renormalised to      72.0000

     negative rho (up, down):  3.658E-01 0.000E+00
     Starting wfcs are   78 randomized atomic wfcs

     total cpu time spent up to now is        9.9 secs

     Self-consistent Calculation

     iteration #  1     ecut=    60.00 Ry     beta= 0.40
     Davidson diagonalization with overlap
     ethr =  1.00E-02,  avg # of iterations =  2.0

     Threshold (ethr) on eigenvalues was too large:
     Diagonalizing with lowered threshold

     Davidson diagonalization with overlap
     ethr =  8.87E-04,  avg # of iterations =  1.4

     negative rho (up, down):  3.674E-01 0.000E+00

     total cpu time spent up to now is       37.5 secs

     total energy              =    -594.32440149 Ry
     estimated scf accuracy    <       0.67306396 Ry

     iteration #  2     ecut=    60.00 Ry     beta= 0.40
     Davidson diagonalization with overlap
     ethr =  9.35E-04,  avg # of iterations =  5.6

     negative rho (up, down):  3.674E-01 0.000E+00

     total cpu time spent up to now is       58.8 secs

     total energy              =    -594.21191249 Ry
     estimated scf accuracy    <       4.35954800 Ry

     iteration #  3     ecut=    60.00 Ry     beta= 0.40
     Davidson diagonalization with overlap
     ethr =  9.35E-04,  avg # of iterations =  4.4

     negative rho (up, down):  3.710E-01 0.000E+00

     total cpu time spent up to now is       77.2 secs

     total energy              =    -594.57651811 Ry
     estimated scf accuracy    <       0.02563953 Ry

     iteration #  4     ecut=    60.00 Ry     beta= 0.40
     Davidson diagonalization with overlap
     ethr =  3.56E-05,  avg # of iterations =  5.8

     negative rho (up, down):  3.710E-01 0.000E+00

     total cpu time spent up to now is      108.8 secs

     total energy              =    -594.58405664 Ry
     estimated scf accuracy    <       0.03698711 Ry

     iteration #  5     ecut=    60.00 Ry     beta= 0.40
     Davidson diagonalization with overlap
     ethr =  3.56E-05,  avg # of iterations =  1.9

     negative rho (up, down):  3.717E-01 0.000E+00

     total cpu time spent up to now is      125.3 secs

     total energy              =    -594.58419215 Ry
     estimated scf accuracy    <       0.00589880 Ry

     iteration #  6     ecut=    60.00 Ry     beta= 0.40
     Davidson diagonalization with overlap
     ethr =  8.19E-06,  avg # of iterations =  5.1

     negative rho (up, down):  3.717E-01 0.000E+00

     total cpu time spent up to now is      149.4 secs

     total energy              =    -594.58664193 Ry
     estimated scf accuracy    <       0.01323096 Ry

     iteration #  7     ecut=    60.00 Ry     beta= 0.40
     Davidson diagonalization with overlap
     ethr =  8.19E-06,  avg # of iterations =  1.1

     negative rho (up, down):  3.719E-01 0.000E+00

     total cpu time spent up to now is      164.6 secs

     total energy              =    -594.58544241 Ry
     estimated scf accuracy    <       0.00650640 Ry

     iteration #  8     ecut=    60.00 Ry     beta= 0.40
     Davidson diagonalization with overlap
     ethr =  8.19E-06,  avg # of iterations =  3.3

     negative rho (up, down):  3.719E-01 0.000E+00

     total cpu time spent up to now is      182.5 secs

     total energy              =    -594.58629246 Ry
     estimated scf accuracy    <       0.00004939 Ry

     iteration #  9     ecut=    60.00 Ry     beta= 0.40
     Davidson diagonalization with overlap
     ethr =  6.86E-08,  avg # of iterations =  5.7

     negative rho (up, down):  3.719E-01 0.000E+00

     total cpu time spent up to now is      226.8 secs

     total energy              =    -594.58626094 Ry
     estimated scf accuracy    <       0.00031602 Ry

     iteration # 10     ecut=    60.00 Ry     beta= 0.40
     Davidson diagonalization with overlap
     ethr =  6.86E-08,  avg # of iterations =  5.1

     negative rho (up, down):  3.718E-01 0.000E+00

     total cpu time spent up to now is      249.1 secs

     total energy              =    -594.58631479 Ry
     estimated scf accuracy    <       0.00011141 Ry

     iteration # 11     ecut=    60.00 Ry     beta= 0.40
     Davidson diagonalization with overlap
     ethr =  6.86E-08,  avg # of iterations =  2.6

     negative rho (up, down):  3.718E-01 0.000E+00

     total cpu time spent up to now is      266.8 secs

     total energy              =    -594.58631959 Ry
     estimated scf accuracy    <       0.00000919 Ry

     iteration # 12     ecut=    60.00 Ry     beta= 0.40
     Davidson diagonalization with overlap
     ethr =  1.28E-08,  avg # of iterations =  4.8

     negative rho (up, down):  3.718E-01 0.000E+00

     total cpu time spent up to now is      286.8 secs

     total energy              =    -594.58632188 Ry
     estimated scf accuracy    <       0.00000665 Ry

     iteration # 13     ecut=    60.00 Ry     beta= 0.40
     Davidson diagonalization with overlap
     ethr =  9.23E-09,  avg # of iterations =  2.1

     negative rho (up, down):  3.718E-01 0.000E+00

     total cpu time spent up to now is      304.3 secs

     End of self-consistent calculation

          k = 0.0000 0.0000 0.0000 ( 10025 PWs)   bands (ev):

   -39.8621 -39.8553 -39.8553 -39.3866 -39.3564 -39.3564 -17.9658 -17.8982
   -17.8982 -17.8462 -17.8280 -17.8280 -17.7881 -17.7545 -17.7545 -17.5090
   -17.4374 -17.4374 -17.2500 -17.2447 -17.2447 -17.2444 -17.2132 -17.2132
     4.7938   7.4778   7.4778   7.5188   7.6103   7.6103   8.4593   8.6748
     9.0554   9.0554   9.4093   9.9219   9.9219   9.9828  10.1066  10.1067
    10.3277  10.4927  10.4927

          k = 0.0000 0.0000 0.5352 ( 10073 PWs)   bands (ev):

   -39.8554 -39.8508 -39.8508 -39.3843 -39.3519 -39.3519 -17.9404 -17.9010
   -17.9010 -17.8741 -17.8741 -17.8633 -17.7975 -17.7975 -17.7871 -17.5439
   -17.3990 -17.3990 -17.3332 -17.2923 -17.2923 -17.2579 -17.2256 -17.2256
     5.6944   8.0168   8.0168   8.0738   8.1501   8.1501   8.4583   8.5464
     8.8620   9.2074   9.2074   9.3295   9.3295   9.7459   9.7459   9.8337
    10.0655  10.3587  10.3587

          k = 0.0000 0.0000-1.0704 ( 10072 PWs)   bands (ev):

   -39.8487 -39.8463 -39.8462 -39.3821 -39.3474 -39.3474 -17.9647 -17.9647
   -17.9148 -17.9137 -17.9094 -17.9094 -17.7814 -17.7814 -17.7401 -17.5888
   -17.4157 -17.3755 -17.3755 -17.3065 -17.3065 -17.2727 -17.2635 -17.2635
     7.5963   7.7136   7.9001   7.9001   8.1222   8.1222   8.1893   8.2745
     8.3628   9.4473   9.4473   9.6305   9.6305   9.6764  10.2725  10.3737
    10.3737  10.4088  10.4088

          k = 0.0000 0.3849 0.0000 ( 10070 PWs)   bands (ev):

   -39.8601 -39.8566 -39.8558 -39.3886 -39.3559 -39.3549 -17.9501 -17.9213
   -17.9168 -17.8574 -17.8308 -17.7797 -17.7785 -17.7613 -17.7574 -17.5756
   -17.4059 -17.3511 -17.2653 -17.2567 -17.2509 -17.2410 -17.2329 -17.2230
     5.2493   6.4447   6.9174   7.5499   7.8716   7.9578   8.3315   8.4600
     8.8889   9.4387   9.7855   9.7984   9.9269  10.0987  10.1851  10.4267
    10.4380  10.6343  10.7656

          k = 0.0000 0.3849 0.5352 ( 10083 PWs)   bands (ev):

   -39.8541 -39.8517 -39.8511 -39.3853 -39.3516 -39.3512 -17.9350 -17.9147
   -17.9049 -17.8722 -17.8651 -17.8500 -17.8148 -17.7959 -17.7804 -17.5609
   -17.4016 -17.3817 -17.3226 -17.2875 -17.2847 -17.2610 -17.2390 -17.2330
     6.0774   7.1011   7.6030   8.0089   8.2458   8.4546   8.5862   8.6979
     8.9181   9.1017   9.2636   9.3367   9.4514   9.5103   9.5919  10.0344
    10.1825  10.3900  10.4017

          k = 0.0000 0.3849-1.0704 ( 10056 PWs)   bands (ev):

   -39.8481 -39.8468 -39.8463 -39.3821 -39.3474 -39.3474 -17.9669 -17.9576
   -17.9250 -17.9115 -17.9074 -17.8855 -17.8224 -17.7717 -17.7281 -17.5855
   -17.4159 -17.3882 -17.3860 -17.3260 -17.3120 -17.2721 -17.2527 -17.2335
     7.4396   7.6275   7.7960   7.8237   7.9796   8.3007   8.4544   8.6895
     8.9747   9.0322   9.1712   9.2634   9.6346   9.7468   9.8852  10.0332
    10.0916  10.6918  10.8649

          k = 0.3333 0.5774 0.0000 ( 10158 PWs)   bands (ev):

   -39.8578 -39.8578 -39.8569 -39.3896 -39.3549 -39.3549 -17.9376 -17.9376
   -17.9198 -17.8348 -17.8348 -17.8033 -17.7658 -17.7658 -17.7656 -17.5662
   -17.3677 -17.3677 -17.2702 -17.2541 -17.2479 -17.2479 -17.2345 -17.2345
     5.8787   6.1646   6.1646   7.5297   7.9421   7.9421   8.4320   8.4320
     8.9872   9.5256   9.7615   9.8283   9.8283  10.1025  10.1025  10.3902
    10.5472  10.5472  10.8748

          k = 0.3333 0.5774 0.5352 ( 10074 PWs)   bands (ev):

   -39.8526 -39.8526 -39.8516 -39.3858 -39.3512 -39.3512 -17.9281 -17.9281
   -17.8993 -17.8668 -17.8642 -17.8642 -17.7930 -17.7916 -17.7916 -17.5781
   -17.3875 -17.3875 -17.2956 -17.2898 -17.2898 -17.2626 -17.2436 -17.2436
     6.5886   6.8849   6.8849   8.1865   8.3260   8.3260   8.5901   8.9417
     8.9417   9.1304   9.1445   9.2593   9.2593   9.6333   9.6333  10.1748
    10.1748  10.4314  10.4757

          k = 0.3333 0.5774-1.0704 ( 10014 PWs)   bands (ev):

   -39.8474 -39.8474 -39.8463 -39.3821 -39.3474 -39.3474 -17.9551 -17.9551
   -17.9251 -17.9154 -17.9154 -17.8781 -17.8435 -17.7451 -17.7451 -17.5720
   -17.4198 -17.4198 -17.3512 -17.3512 -17.3191 -17.2718 -17.2325 -17.2325
     7.3926   7.6621   7.8597   7.8597   7.9523   7.9523   8.8166   8.8784
     9.0372   9.0372   9.0757   9.0757   9.5239   9.9164   9.9164   9.9645
    10.3188  10.3188  10.9078

     the Fermi energy is     9.4924 ev

!    total energy              =    -594.58632223 Ry
     estimated scf accuracy    <       0.00000025 Ry
     smearing contrib. (-TS)   =      -0.00831086 Ry
     internal energy E=F+TS    =    -594.57801137 Ry

     The total energy is F=E-TS. E is the sum of the following terms:
     one-electron contribution =    -195.72972506 Ry
     hartree contribution      =     112.50411807 Ry
     xc contribution           =    -105.55843350 Ry
     ewald contribution        =    -405.79397089 Ry

     convergence has been achieved in  13 iterations

     negative rho (up, down):  3.718E-01 0.000E+00

     Forces acting on atoms (cartesian axes, Ry/au):

     atom    1 type  1   force =    -0.00323364   -0.00560083    0.00000000
     atom    2 type  1   force =     0.00646729    0.00000000    0.00000000
     atom    3 type  1   force =    -0.00323364    0.00560083    0.00000000
     atom    4 type  1   force =    -0.00776010   -0.01344089    0.00000000
     atom    5 type  1   force =     0.01552021    0.00000000    0.00000000
     atom    6 type  1   force =    -0.00776010    0.01344089   -0.00000000

     Total force =     0.029122     Total SCF correction =     0.001135

     BFGS Geometry Optimization
     Energy error            =      8.5E-04 Ry
     Gradient error          =      1.6E-02 Ry/Bohr

     number of scf cycles    =   1
     number of bfgs steps    =   0

     energy             new  =    -594.5863222347 Ry

     new trust radius        =       0.0155202075 bohr
     new conv_thr            =       0.0000010000 Ry


ATOMIC_POSITIONS (angstrom)
Zr               0.9215608298        1.5961901662        0.0000000000
Zr               5.9352483405        0.0000000000        0.0000000000
Zr              -2.9676241702        5.1400758338        0.0000000000
Zr               2.3106945299        4.0022393852        1.8167690000
Zr               3.1569819401        0.0000000000        1.8167690000
Zr              -1.5784904701        2.7340266148        1.8167690000



     Writing config-only to output data dir ./tmp/Zr6CoTe2.save/ :
     XML data file
     NEW-OLD atomic charge density approx. for the potential

     negative rho (up, down):  3.722E-01 0.000E+00

     total cpu time spent up to now is      309.4 secs

     Self-consistent Calculation

     iteration #  1     ecut=    60.00 Ry     beta= 0.40
     Davidson diagonalization with overlap
     ethr =  1.00E-06,  avg # of iterations =  5.4

     Threshold (ethr) on eigenvalues was too large:
     Diagonalizing with lowered threshold

     Davidson diagonalization with overlap
     ethr =  6.76E-08,  avg # of iterations =  4.3

     negative rho (up, down):  3.722E-01 0.000E+00

     total cpu time spent up to now is      362.1 secs

     total energy              =    -594.58712346 Ry
     estimated scf accuracy    <       0.00005860 Ry

     iteration #  2     ecut=    60.00 Ry     beta= 0.40
     Davidson diagonalization with overlap
     ethr =  8.14E-08,  avg # of iterations =  4.9

     negative rho (up, down):  3.722E-01 0.000E+00

     total cpu time spent up to now is      381.7 secs

     total energy              =    -594.58710993 Ry
     estimated scf accuracy    <       0.00035115 Ry

     iteration #  3     ecut=    60.00 Ry     beta= 0.40
     Davidson diagonalization with overlap
     ethr =  8.14E-08,  avg # of iterations =  3.9

     negative rho (up, down):  3.722E-01 0.000E+00

     total cpu time spent up to now is      399.8 secs

     total energy              =    -594.58714205 Ry
     estimated scf accuracy    <       0.00000372 Ry

     iteration #  4     ecut=    60.00 Ry     beta= 0.40
     Davidson diagonalization with overlap
     ethr =  5.17E-09,  avg # of iterations =  4.2

     negative rho (up, down):  3.722E-01 0.000E+00

     total cpu time spent up to now is      417.1 secs

     total energy              =    -594.58714245 Ry
     estimated scf accuracy    <       0.00000208 Ry

     iteration #  5     ecut=    60.00 Ry     beta= 0.40
     Davidson diagonalization with overlap
     ethr =  2.89E-09,  avg # of iterations =  2.4

     negative rho (up, down):  3.722E-01 0.000E+00

     total cpu time spent up to now is      432.9 secs

     End of self-consistent calculation

          k = 0.0000 0.0000 0.0000 ( 10025 PWs)   bands (ev):

   -39.8651 -39.8583 -39.8583 -39.3878 -39.3567 -39.3567 -17.9678 -17.9004
   -17.9004 -17.8480 -17.8287 -17.8287 -17.7907 -17.7576 -17.7576 -17.5118
   -17.4397 -17.4397 -17.2522 -17.2456 -17.2456 -17.2448 -17.2116 -17.2116
     4.7935   7.4807   7.4807   7.5204   7.6121   7.6121   8.4597   8.6775
     9.0552   9.0552   9.3954   9.9113   9.9113   9.9820  10.1117  10.1117
    10.3393  10.5039  10.5039

          k = 0.0000 0.0000 0.5352 ( 10073 PWs)   bands (ev):

   -39.8584 -39.8538 -39.8538 -39.3855 -39.3522 -39.3522 -17.9430 -17.9030
   -17.9030 -17.8759 -17.8759 -17.8664 -17.7992 -17.7992 -17.7884 -17.5461
   -17.4018 -17.4018 -17.3358 -17.2929 -17.2929 -17.2577 -17.2244 -17.2244
     5.6937   8.0147   8.0147   8.0737   8.1532   8.1532   8.4580   8.5445
     8.8539   9.2141   9.2141   9.3262   9.3262   9.7458   9.7458   9.8311
    10.0768  10.3679  10.3679

          k = 0.0000 0.0000-1.0704 ( 10072 PWs)   bands (ev):

   -39.8518 -39.8493 -39.8493 -39.3832 -39.3477 -39.3477 -17.9664 -17.9663
   -17.9186 -17.9169 -17.9110 -17.9110 -17.7834 -17.7834 -17.7400 -17.5912
   -17.4187 -17.3786 -17.3785 -17.3080 -17.3080 -17.2717 -17.2614 -17.2614
     7.5961   7.7104   7.8953   7.8953   8.1253   8.1253   8.1886   8.2660
     8.3575   9.4553   9.4553   9.6430   9.6430   9.6902  10.2803  10.3729
    10.3729  10.4077  10.4077

          k = 0.0000 0.3849 0.0000 ( 10070 PWs)   bands (ev):

   -39.8632 -39.8597 -39.8588 -39.3898 -39.3562 -39.3552 -17.9521 -17.9230
   -17.9186 -17.8594 -17.8319 -17.7812 -17.7812 -17.7643 -17.7604 -17.5781
   -17.4082 -17.3539 -17.2674 -17.2547 -17.2511 -17.2420 -17.2340 -17.2215
     5.2492   6.4452   6.9183   7.5512   7.8727   7.9583   8.3375   8.4627
     8.8908   9.4301   9.7862   9.8016   9.9320  10.0925  10.1860  10.4282
    10.4323  10.6459  10.7536

          k = 0.0000 0.3849 0.5352 ( 10083 PWs)   bands (ev):

   -39.8572 -39.8547 -39.8541 -39.3865 -39.3520 -39.3515 -17.9373 -17.9165
   -17.9068 -17.8744 -17.8674 -17.8526 -17.8168 -17.7973 -17.7817 -17.5634
   -17.4041 -17.3845 -17.3243 -17.2886 -17.2862 -17.2607 -17.2375 -17.2316
     6.0768   7.1007   7.6034   8.0082   8.2461   8.4554   8.5883   8.6971
     8.9211   9.1006   9.2646   9.3352   9.4526   9.5070   9.5885  10.0393
    10.1907  10.3925  10.4080

          k = 0.0000 0.3849-1.0704 ( 10056 PWs)   bands (ev):

   -39.8512 -39.8498 -39.8493 -39.3832 -39.3477 -39.3477 -17.9688 -17.9593
   -17.9272 -17.9146 -17.9094 -17.8881 -17.8233 -17.7735 -17.7293 -17.5882
   -17.4183 -17.3909 -17.3881 -17.3277 -17.3139 -17.2712 -17.2508 -17.2320
     7.4384   7.6256   7.7958   7.8264   7.9774   8.3046   8.4508   8.6843
     8.9711   9.0384   9.1707   9.2634   9.6375   9.7529   9.8861  10.0269
    10.0953  10.6869  10.8816

          k = 0.3333 0.5774 0.0000 ( 10158 PWs)   bands (ev):

   -39.8609 -39.8609 -39.8599 -39.3908 -39.3553 -39.3553 -17.9396 -17.9396
   -17.9212 -17.8360 -17.8360 -17.8062 -17.7689 -17.7689 -17.7683 -17.5680
   -17.3700 -17.3700 -17.2723 -17.2545 -17.2463 -17.2463 -17.2355 -17.2355
     5.8793   6.1647   6.1647   7.5307   7.9422   7.9422   8.4377   8.4377
     8.9880   9.5109   9.7711   9.8338   9.8338  10.1049  10.1049  10.3814
    10.5385  10.5385  10.8939

          k = 0.3333 0.5774 0.5352 ( 10074 PWs)   bands (ev):

   -39.8557 -39.8557 -39.8546 -39.3870 -39.3515 -39.3515 -17.9300 -17.9300
   -17.9013 -17.8694 -17.8665 -17.8665 -17.7951 -17.7930 -17.7930 -17.5805
   -17.3901 -17.3901 -17.2979 -17.2910 -17.2910 -17.2623 -17.2419 -17.2419
     6.5885   6.8846   6.8846   8.1833   8.3272   8.3272   8.5938   8.9463
     8.9463   9.1296   9.1423   9.2587   9.2587   9.6276   9.6276  10.1813
    10.1813  10.4373  10.4746

          k = 0.3333 0.5774-1.0704 ( 10014 PWs)   bands (ev):

   -39.8505 -39.8505 -39.8493 -39.3832 -39.3477 -39.3477 -17.9568 -17.9568
   -17.9284 -17.9176 -17.9176 -17.8808 -17.8441 -17.7466 -17.7466 -17.5750
   -17.4222 -17.4222 -17.3527 -17.3527 -17.3217 -17.2709 -17.2309 -17.2309
     7.3905   7.6644   7.8572   7.8572   7.9568   7.9568   8.8208   8.8697
     9.0378   9.0378   9.0734   9.0734   9.5237   9.9149   9.9149   9.9674
    10.3110  10.3110  10.9056

     the Fermi energy is     9.4901 ev

!    total energy              =    -594.58714270 Ry
     estimated scf accuracy    <       0.00000005 Ry
     smearing contrib. (-TS)   =      -0.00830987 Ry
     internal energy E=F+TS    =    -594.57883283 Ry

     The total energy is F=E-TS. E is the sum of the following terms:
     one-electron contribution =    -195.57082452 Ry
     hartree contribution      =     112.42017098 Ry
     xc contribution           =    -105.55599449 Ry
     ewald contribution        =    -405.87218480 Ry

     convergence has been achieved in   5 iterations

     negative rho (up, down):  3.722E-01 0.000E+00

     Forces acting on atoms (cartesian axes, Ry/au):

     atom    1 type  1   force =    -0.00301326   -0.00521912    0.00000000
     atom    2 type  1   force =     0.00602652    0.00000000    0.00000000
     atom    3 type  1   force =    -0.00301326    0.00521912    0.00000000
     atom    4 type  1   force =    -0.00724147   -0.01254259    0.00000000
     atom    5 type  1   force =     0.01448294    0.00000000    0.00000000
     atom    6 type  1   force =    -0.00724147    0.01254259    0.00000000

     Total force =     0.027170     Total SCF correction =     0.000456
     Energy error            =      8.2E-04 Ry
     Gradient error          =      1.4E-02 Ry/Bohr

     number of scf cycles    =   2
     number of bfgs steps    =   1

     energy             old  =    -594.5863222347 Ry
     energy             new  =    -594.5871427004 Ry

     CASE: energy            _new < energy            _old


     WARNING: bfgs curvature condition failed, Theta= 0.857
     new trust radius        =       0.0170722283 bohr
     new conv_thr            =       0.0000000820 Ry


ATOMIC_POSITIONS (angstrom)
Zr               0.9196803686        1.5929331120        0.0000000000
Zr               5.9390092627        0.0000000000        0.0000000000
Zr              -2.9695046314        5.1433328880        0.0000000000
Zr               2.3061774129        3.9944155090        1.8167690000
Zr               3.1660161742        0.0000000000        1.8167690000
Zr              -1.5830075871        2.7418504910        1.8167690000



     Writing config-only to output data dir ./tmp/Zr6CoTe2.save/ :
     XML data file
     NEW-OLD atomic charge density approx. for the potential

     negative rho (up, down):  3.724E-01 0.000E+00

     total cpu time spent up to now is      437.8 secs

     Self-consistent Calculation

     iteration #  1     ecut=    60.00 Ry     beta= 0.40
     Davidson diagonalization with overlap
     ethr =  1.00E-06,  avg # of iterations =  5.9

     Threshold (ethr) on eigenvalues was too large:
     Diagonalizing with lowered threshold

     Davidson diagonalization with overlap
     ethr =  4.59E-08,  avg # of iterations =  4.7

     negative rho (up, down):  3.724E-01 0.000E+00

     total cpu time spent up to now is      504.3 secs

     total energy              =    -594.58797320 Ry
     estimated scf accuracy    <       0.00003308 Ry

     iteration #  2     ecut=    60.00 Ry     beta= 0.40
     Davidson diagonalization with overlap
     ethr =  4.59E-08,  avg # of iterations =  2.0

     negative rho (up, down):  3.724E-01 0.000E+00

     total cpu time spent up to now is      525.0 secs

     total energy              =    -594.58797252 Ry
     estimated scf accuracy    <       0.00001664 Ry

     iteration #  3     ecut=    60.00 Ry     beta= 0.40
     Davidson diagonalization with overlap
     ethr =  2.31E-08,  avg # of iterations =  4.2

     negative rho (up, down):  3.724E-01 0.000E+00

     total cpu time spent up to now is      555.0 secs

     total energy              =    -594.58797360 Ry
     estimated scf accuracy    <       0.00003484 Ry

     iteration #  4     ecut=    60.00 Ry     beta= 0.40
     Davidson diagonalization with overlap
     ethr =  2.31E-08,  avg # of iterations =  2.9

     negative rho (up, down):  3.724E-01 0.000E+00

     total cpu time spent up to now is      582.0 secs

     total energy              =    -594.58797676 Ry
     estimated scf accuracy    <       0.00000051 Ry

     iteration #  5     ecut=    60.00 Ry     beta= 0.40
     Davidson diagonalization with overlap
     ethr =  7.10E-10,  avg # of iterations =  5.1

     negative rho (up, down):  3.724E-01 0.000E+00

     total cpu time spent up to now is      602.5 secs

     total energy              =    -594.58797672 Ry
     estimated scf accuracy    <       0.00000146 Ry

     iteration #  6     ecut=    60.00 Ry     beta= 0.40
     Davidson diagonalization with overlap
     ethr =  7.10E-10,  avg # of iterations =  5.1

     negative rho (up, down):  3.724E-01 0.000E+00

     total cpu time spent up to now is      621.6 secs

     total energy              =    -594.58797695 Ry
     estimated scf accuracy    <       0.00000085 Ry

     iteration #  7     ecut=    60.00 Ry     beta= 0.40
     Davidson diagonalization with overlap
     ethr =  7.10E-10,  avg # of iterations =  3.0

     negative rho (up, down):  3.724E-01 0.000E+00

     total cpu time spent up to now is      637.5 secs

     End of self-consistent calculation

          k = 0.0000 0.0000 0.0000 ( 10025 PWs)   bands (ev):

   -39.8687 -39.8620 -39.8620 -39.3885 -39.3564 -39.3564 -17.9702 -17.9032
   -17.9032 -17.8501 -17.8296 -17.8296 -17.7938 -17.7613 -17.7613 -17.5147
   -17.4419 -17.4419 -17.2541 -17.2459 -17.2459 -17.2446 -17.2094 -17.2094
     4.7932   7.4838   7.4838   7.5222   7.6143   7.6143   8.4600   8.6802
     9.0550   9.0550   9.3804   9.8995   9.8995   9.9809  10.1174  10.1174
    10.3519  10.5164  10.5164

          k = 0.0000 0.0000 0.5352 ( 10073 PWs)   bands (ev):

   -39.8621 -39.8575 -39.8575 -39.3862 -39.3519 -39.3519 -17.9461 -17.9055
   -17.9055 -17.8781 -17.8781 -17.8701 -17.8012 -17.8012 -17.7901 -17.5484
   -17.4044 -17.4044 -17.3380 -17.2930 -17.2930 -17.2567 -17.2225 -17.2225
     5.6930   8.0124   8.0124   8.0736   8.1569   8.1569   8.4573   8.5424
     8.8453   9.2215   9.2215   9.3226   9.3226   9.7454   9.7454   9.8281
    10.0895  10.3779  10.3779

          k = 0.0000 0.0000-1.0704 ( 10072 PWs)   bands (ev):

   -39.8554 -39.8530 -39.8530 -39.3838 -39.3474 -39.3474 -17.9683 -17.9683
   -17.9231 -17.9208 -17.9130 -17.9130 -17.7857 -17.7857 -17.7403 -17.5936
   -17.4213 -17.3814 -17.3814 -17.3091 -17.3091 -17.2700 -17.2586 -17.2586
     7.5961   7.7067   7.8903   7.8903   8.1288   8.1288   8.1878   8.2570
     8.3516   9.4640   9.4640   9.6566   9.6566   9.7056  10.2892  10.3721
    10.3721  10.4063  10.4063

          k = 0.0000 0.3849 0.0000 ( 10070 PWs)   bands (ev):

   -39.8668 -39.8633 -39.8625 -39.3905 -39.3560 -39.3550 -17.9547 -17.9251
   -17.9208 -17.8617 -17.8333 -17.7845 -17.7831 -17.7679 -17.7640 -17.5805
   -17.4102 -17.3566 -17.2690 -17.2523 -17.2505 -17.2424 -17.2345 -17.2194
     5.2491   6.4458   6.9194   7.5525   7.8741   7.9587   8.3441   8.4656
     8.8929   9.4204   9.7868   9.8050   9.9376  10.0856  10.1867  10.4261
    10.4297  10.6584  10.7408

          k = 0.0000 0.3849 0.5352 ( 10083 PWs)   bands (ev):

   -39.8608 -39.8584 -39.8578 -39.3871 -39.3517 -39.3512 -17.9401 -17.9188
   -17.9092 -17.8772 -17.8703 -17.8558 -17.8191 -17.7991 -17.7834 -17.5658
   -17.4066 -17.3871 -17.3255 -17.2892 -17.2872 -17.2598 -17.2354 -17.2295
     6.0763   7.1004   7.6038   8.0074   8.2465   8.4564   8.5907   8.6963
     8.9244   9.0993   9.2656   9.3337   9.4539   9.5035   9.5847  10.0447
    10.1998  10.3944  10.4153

          k = 0.0000 0.3849-1.0704 ( 10056 PWs)   bands (ev):

   -39.8549 -39.8535 -39.8530 -39.3838 -39.3475 -39.3474 -17.9711 -17.9614
   -17.9299 -17.9183 -17.9118 -17.8912 -17.8245 -17.7757 -17.7309 -17.5910
   -17.4205 -17.3935 -17.3898 -17.3290 -17.3154 -17.2695 -17.2482 -17.2297
     7.4374   7.6236   7.7956   7.8293   7.9753   8.3088   8.4470   8.6787
     8.9670   9.0455   9.1706   9.2633   9.6408   9.7596   9.8865  10.0197
    10.0998  10.6810  10.9006

          k = 0.3333 0.5774 0.0000 ( 10158 PWs)   bands (ev):

   -39.8645 -39.8645 -39.8634 -39.3915 -39.3550 -39.3550 -17.9420 -17.9420
   -17.9231 -17.8375 -17.8375 -17.8097 -17.7725 -17.7725 -17.7714 -17.5698
   -17.3722 -17.3722 -17.2740 -17.2542 -17.2440 -17.2440 -17.2360 -17.2360
     5.8800   6.1649   6.1649   7.5319   7.9422   7.9422   8.4439   8.4439
     8.9889   9.4948   9.7820   9.8400   9.8400  10.1071  10.1071  10.3714
    10.5293  10.5293  10.9148

          k = 0.3333 0.5774 0.5352 ( 10074 PWs)   bands (ev):

   -39.8594 -39.8594 -39.8582 -39.3876 -39.3512 -39.3512 -17.9324 -17.9324
   -17.9038 -17.8724 -17.8693 -17.8693 -17.7978 -17.7949 -17.7949 -17.5829
   -17.3925 -17.3925 -17.3000 -17.2918 -17.2918 -17.2614 -17.2395 -17.2395
     6.5886   6.8842   6.8842   8.1797   8.3286   8.3286   8.5982   8.9515
     8.9515   9.1287   9.1398   9.2583   9.2583   9.6213   9.6213  10.1884
    10.1884  10.4440  10.4736

          k = 0.3333 0.5774-1.0704 ( 10014 PWs)   bands (ev):

   -39.8542 -39.8542 -39.8530 -39.3838 -39.3475 -39.3475 -17.9589 -17.9589
   -17.9322 -17.9203 -17.9203 -17.8840 -17.8449 -17.7486 -17.7486 -17.5780
   -17.4243 -17.4243 -17.3537 -17.3537 -17.3242 -17.2692 -17.2287 -17.2287
     7.3884   7.6669   7.8545   7.8545   7.9619   7.9619   8.8256   8.8604
     9.0383   9.0383   9.0711   9.0711   9.5234   9.9132   9.9132   9.9707
    10.3023  10.3023  10.9037

     the Fermi energy is     9.4876 ev

!    total energy              =    -594.58797700 Ry
     estimated scf accuracy    <       0.00000002 Ry
     smearing contrib. (-TS)   =      -0.00830973 Ry
     internal energy E=F+TS    =    -594.57966727 Ry

     The total energy is F=E-TS. E is the sum of the following terms:
     one-electron contribution =    -195.40328160 Ry
     hartree contribution      =     112.33141418 Ry
     xc contribution           =    -105.55332391 Ry
     ewald contribution        =    -405.95447595 Ry

     convergence has been achieved in   7 iterations

     negative rho (up, down):  3.724E-01 0.000E+00

     Forces acting on atoms (cartesian axes, Ry/au):

     atom    1 type  1   force =    -0.00276635   -0.00479146    0.00000000
     atom    2 type  1   force =     0.00553270    0.00000000    0.00000000
     atom    3 type  1   force =    -0.00276635    0.00479146    0.00000000
     atom    4 type  1   force =    -0.00663200   -0.01148696   -0.00000000
     atom    5 type  1   force =     0.01326400    0.00000000    0.00000000
     atom    6 type  1   force =    -0.00663200    0.01148696    0.00000000

     Total force =     0.024892     Total SCF correction =     0.000388
     Energy error            =      8.3E-04 Ry
     Gradient error          =      1.3E-02 Ry/Bohr

     number of scf cycles    =   3
     number of bfgs steps    =   2

     energy             old  =    -594.5871427004 Ry
     energy             new  =    -594.5879770038 Ry

     CASE: energy            _new < energy            _old

     new trust radius        =       0.0256083424 bohr
     new conv_thr            =       0.0000000834 Ry


ATOMIC_POSITIONS (angstrom)
Zr               0.9168538736        1.5880374790        0.0000000000
Zr               5.9446622527        0.0000000000        0.0000000000
Zr              -2.9723311264        5.1482285210        0.0000000000
Zr               2.2994017373        3.9826796946        1.8167690000
Zr               3.1795675254        0.0000000000        1.8167690000
Zr              -1.5897832627        2.7535863054        1.8167690000



     Writing config-only to output data dir ./tmp/Zr6CoTe2.save/ :
     XML data file
     NEW-OLD atomic charge density approx. for the potential

     negative rho (up, down):  3.726E-01 0.000E+00

     total cpu time spent up to now is      643.0 secs

     Self-consistent Calculation

     iteration #  1     ecut=    60.00 Ry     beta= 0.40
     Davidson diagonalization with overlap
     ethr =  1.00E-06,  avg # of iterations =  7.0

     Threshold (ethr) on eigenvalues was too large:
     Diagonalizing with lowered threshold

     Davidson diagonalization with overlap
     ethr =  9.05E-08,  avg # of iterations =  4.2

     negative rho (up, down):  3.726E-01 0.000E+00

     total cpu time spent up to now is      696.0 secs

     total energy              =    -594.58908274 Ry
     estimated scf accuracy    <       0.00006929 Ry

     iteration #  2     ecut=    60.00 Ry     beta= 0.40
     Davidson diagonalization with overlap
     ethr =  9.62E-08,  avg # of iterations =  2.0

     negative rho (up, down):  3.726E-01 0.000E+00

     total cpu time spent up to now is      711.7 secs

     total energy              =    -594.58908751 Ry
     estimated scf accuracy    <       0.00001060 Ry

     iteration #  3     ecut=    60.00 Ry     beta= 0.40
     Davidson diagonalization with overlap
     ethr =  1.47E-08,  avg # of iterations =  3.8

     negative rho (up, down):  3.726E-01 0.000E+00

     total cpu time spent up to now is      729.2 secs

     total energy              =    -594.58908871 Ry
     estimated scf accuracy    <       0.00000225 Ry

     iteration #  4     ecut=    60.00 Ry     beta= 0.40
     Davidson diagonalization with overlap
     ethr =  3.12E-09,  avg # of iterations =  4.8

     negative rho (up, down):  3.726E-01 0.000E+00

     total cpu time spent up to now is      747.8 secs

     total energy              =    -594.58908865 Ry
     estimated scf accuracy    <       0.00000849 Ry

     iteration #  5     ecut=    60.00 Ry     beta= 0.40
     Davidson diagonalization with overlap
     ethr =  3.12E-09,  avg # of iterations =  3.8

     negative rho (up, down):  3.726E-01 0.000E+00

     total cpu time spent up to now is      765.2 secs

     total energy              =    -594.58908946 Ry
     estimated scf accuracy    <       0.00000017 Ry

     iteration #  6     ecut=    60.00 Ry     beta= 0.40
     Davidson diagonalization with overlap
     ethr =  2.31E-10,  avg # of iterations =  4.0

     negative rho (up, down):  3.726E-01 0.000E+00

     total cpu time spent up to now is      782.7 secs

     End of self-consistent calculation

          k = 0.0000 0.0000 0.0000 ( 10025 PWs)   bands (ev):

   -39.8739 -39.8673 -39.8673 -39.3897 -39.3561 -39.3561 -17.9738 -17.9072
   -17.9072 -17.8534 -17.8311 -17.8311 -17.7982 -17.7666 -17.7666 -17.5192
   -17.4453 -17.4453 -17.2569 -17.2466 -17.2466 -17.2442 -17.2059 -17.2059
     4.7928   7.4880   7.4880   7.5244   7.6179   7.6179   8.4599   8.6843
     9.0546   9.0546   9.3581   9.8820   9.8820   9.9786  10.1257  10.1257
    10.3704  10.5352  10.5352

          k = 0.0000 0.0000 0.5352 ( 10073 PWs)   bands (ev):

   -39.8674 -39.8628 -39.8628 -39.3873 -39.3516 -39.3516 -17.9505 -17.9092
   -17.9092 -17.8813 -17.8813 -17.8755 -17.8042 -17.8042 -17.7928 -17.5520
   -17.4085 -17.4085 -17.3413 -17.2932 -17.2932 -17.2554 -17.2195 -17.2195
     5.6920   8.0089   8.0089   8.0731   8.1625   8.1625   8.4559   8.5393
     8.8329   9.2321   9.2321   9.3174   9.3174   9.7445   9.7445   9.8227
    10.1083  10.3930  10.3930

          k = 0.0000 0.0000-1.0704 ( 10072 PWs)   bands (ev):

   -39.8608 -39.8583 -39.8583 -39.3849 -39.3471 -39.3471 -17.9712 -17.9712
   -17.9296 -17.9263 -17.9160 -17.9160 -17.7893 -17.7893 -17.7410 -17.5973
   -17.4253 -17.3858 -17.3858 -17.3108 -17.3108 -17.2675 -17.2542 -17.2542
     7.5960   7.7014   7.8830   7.8830   8.1340   8.1340   8.1863   8.2436
     8.3432   9.4768   9.4768   9.6765   9.6765   9.7287  10.3024  10.3708
    10.3708  10.4040  10.4040

          k = 0.0000 0.3849 0.0000 ( 10070 PWs)   bands (ev):

   -39.8720 -39.8686 -39.8677 -39.3917 -39.3556 -39.3547 -17.9584 -17.9283
   -17.9240 -17.8653 -17.8354 -17.7892 -17.7861 -17.7730 -17.7692 -17.5841
   -17.4135 -17.3608 -17.2716 -17.2508 -17.2472 -17.2431 -17.2355 -17.2160
     5.2491   6.4468   6.9209   7.5542   7.8760   7.9594   8.3539   8.4700
     8.8957   9.4058   9.7873   9.8096   9.9457  10.0752  10.1873  10.4166
    10.4315  10.6765  10.7218

          k = 0.0000 0.3849 0.5352 ( 10083 PWs)   bands (ev):

   -39.8661 -39.8637 -39.8631 -39.3882 -39.3513 -39.3509 -17.9442 -17.9221
   -17.9126 -17.8813 -17.8744 -17.8604 -17.8228 -17.8018 -17.7861 -17.5696
   -17.4103 -17.3912 -17.3275 -17.2901 -17.2888 -17.2584 -17.2320 -17.2261
     6.0756   7.1000   7.6045   8.0060   8.2468   8.4577   8.5942   8.6949
     8.9293   9.0973   9.2672   9.3312   9.4560   9.4983   9.5791  10.0529
    10.2135  10.3969  10.4257

          k = 0.0000 0.3849-1.0704 ( 10056 PWs)   bands (ev):

   -39.8603 -39.8588 -39.8583 -39.3848 -39.3471 -39.3471 -17.9746 -17.9645
   -17.9339 -17.9237 -17.9153 -17.8957 -17.8264 -17.7790 -17.7335 -17.5952
   -17.4240 -17.3976 -17.3924 -17.3310 -17.3177 -17.2670 -17.2442 -17.2262
     7.4358   7.6204   7.7951   7.8337   7.9722   8.3147   8.4415   8.6703
     8.9606   9.0561   9.1708   9.2632   9.6456   9.7692   9.8861  10.0087
    10.1072  10.6718  10.9294

          k = 0.3333 0.5774 0.0000 ( 10158 PWs)   bands (ev):

   -39.8698 -39.8698 -39.8686 -39.3926 -39.3547 -39.3547 -17.9456 -17.9456
   -17.9257 -17.8398 -17.8398 -17.8150 -17.7776 -17.7776 -17.7760 -17.5727
   -17.3758 -17.3758 -17.2766 -17.2538 -17.2403 -17.2403 -17.2368 -17.2368
     5.8810   6.1653   6.1653   7.5333   7.9424   7.9424   8.4532   8.4532
     8.9896   9.4711   9.7990   9.8491   9.8491  10.1096  10.1096  10.3557
    10.5158  10.5158  10.9459

          k = 0.3333 0.5774 0.5352 ( 10074 PWs)   bands (ev):

   -39.8647 -39.8647 -39.8635 -39.3887 -39.3509 -39.3509 -17.9360 -17.9360
   -17.9074 -17.8770 -17.8733 -17.8733 -17.8018 -17.7976 -17.7976 -17.5865
   -17.3963 -17.3963 -17.3031 -17.2930 -17.2930 -17.2600 -17.2357 -17.2357
     6.5887   6.8838   6.8838   8.1738   8.3305   8.3305   8.6048   8.9593
     8.9593   9.1270   9.1359   9.2577   9.2577   9.6119   9.6119  10.1986
    10.1986  10.4543  10.4722

          k = 0.3333 0.5774-1.0704 ( 10014 PWs)   bands (ev):

   -39.8596 -39.8596 -39.8583 -39.3848 -39.3471 -39.3471 -17.9620 -17.9620
   -17.9378 -17.9242 -17.9242 -17.8886 -17.8462 -17.7518 -17.7518 -17.5826
   -17.4277 -17.4277 -17.3552 -17.3551 -17.3279 -17.2667 -17.2252 -17.2252
     7.3852   7.6703   7.8507   7.8507   7.9695   7.9695   8.8327   8.8464
     9.0389   9.0389   9.0677   9.0677   9.5229   9.9104   9.9104   9.9757
    10.2893  10.2893  10.9015

     the Fermi energy is     9.4837 ev

!    total energy              =    -594.58908946 Ry
     estimated scf accuracy    <       0.00000005 Ry
     smearing contrib. (-TS)   =      -0.00830182 Ry
     internal energy E=F+TS    =    -594.58078764 Ry

     The total energy is F=E-TS. E is the sum of the following terms:
     one-electron contribution =    -195.16824904 Ry
     hartree contribution      =     112.20715259 Ry
     xc contribution           =    -105.54964710 Ry
     ewald contribution        =    -406.07004410 Ry

     convergence has been achieved in   6 iterations

     negative rho (up, down):  3.726E-01 0.000E+00

     Forces acting on atoms (cartesian axes, Ry/au):

     atom    1 type  1   force =    -0.00236058   -0.00408864   -0.00000000
     atom    2 type  1   force =     0.00472115   -0.00000000    0.00000000
     atom    3 type  1   force =    -0.00236058    0.00408864    0.00000000
     atom    4 type  1   force =    -0.00568684   -0.00984989    0.00000000
     atom    5 type  1   force =     0.01137368    0.00000000    0.00000000
     atom    6 type  1   force =    -0.00568684    0.00984989    0.00000000

     Total force =     0.021330     Total SCF correction =     0.000839
     Energy error            =      1.1E-03 Ry
     Gradient error          =      1.1E-02 Ry/Bohr

     number of scf cycles    =   4
     number of bfgs steps    =   3

     energy             old  =    -594.5879770038 Ry
     energy             new  =    -594.5890894583 Ry

     CASE: energy            _new < energy            _old

     new trust radius        =       0.0384125136 bohr
     new conv_thr            =       0.0000001112 Ry


ATOMIC_POSITIONS (angstrom)
Zr               0.9126248054        1.5807125180        0.0000000000
Zr               5.9531203892       -0.0000000000        0.0000000000
Zr              -2.9765601946        5.1555534820        0.0000000000
Zr               2.2892382239        3.9650759730        1.8167690000
Zr               3.1998945522        0.0000000000        1.8167690000
Zr              -1.5999467761        2.7711900270        1.8167690000



     Writing config-only to output data dir ./tmp/Zr6CoTe2.save/ :
     XML data file
     NEW-OLD atomic charge density approx. for the potential

     negative rho (up, down):  3.741E-01 0.000E+00

     total cpu time spent up to now is      787.6 secs

     Self-consistent Calculation

     iteration #  1     ecut=    60.00 Ry     beta= 0.40
     Davidson diagonalization with overlap
     ethr =  1.00E-06,  avg # of iterations =  8.3

     negative rho (up, down):  3.741E-01 0.000E+00

     total cpu time spent up to now is      828.8 secs

     total energy              =    -594.59040150 Ry
     estimated scf accuracy    <       0.00015295 Ry

     iteration #  2     ecut=    60.00 Ry     beta= 0.40
     Davidson diagonalization with overlap
     ethr =  2.12E-07,  avg # of iterations =  3.4

     negative rho (up, down):  3.741E-01 0.000E+00

     total cpu time spent up to now is      846.6 secs

     total energy              =    -594.59041810 Ry
     estimated scf accuracy    <       0.00003074 Ry

     iteration #  3     ecut=    60.00 Ry     beta= 0.40
     Davidson diagonalization with overlap
     ethr =  4.27E-08,  avg # of iterations =  3.9

     negative rho (up, down):  3.741E-01 0.000E+00

     total cpu time spent up to now is      865.8 secs

     total energy              =    -594.59041582 Ry
     estimated scf accuracy    <       0.00006358 Ry

     iteration #  4     ecut=    60.00 Ry     beta= 0.40
     Davidson diagonalization with overlap
     ethr =  4.27E-08,  avg # of iterations =  3.3

     negative rho (up, down):  3.741E-01 0.000E+00

     total cpu time spent up to now is    10239.8 secs

     total energy              =    -594.59042482 Ry
     estimated scf accuracy    <       0.00000871 Ry

     iteration #  5     ecut=    60.00 Ry     beta= 0.40
     Davidson diagonalization with overlap
     ethr =  1.21E-08,  avg # of iterations =  1.6

     negative rho (up, down):  3.741E-01 0.000E+00

     total cpu time spent up to now is    10258.5 secs

     total energy              =    -594.59042541 Ry
     estimated scf accuracy    <       0.00000087 Ry

     iteration #  6     ecut=    60.00 Ry     beta= 0.40
     Davidson diagonalization with overlap
     ethr =  1.21E-09,  avg # of iterations =  4.3

     negative rho (up, down):  3.741E-01 0.000E+00

     total cpu time spent up to now is    10276.7 secs

     total energy              =    -594.59042555 Ry
     estimated scf accuracy    <       0.00000080 Ry

     iteration #  7     ecut=    60.00 Ry     beta= 0.40
     Davidson diagonalization with overlap
     ethr =  1.11E-09,  avg # of iterations =  2.1

     negative rho (up, down):  3.741E-01 0.000E+00

     total cpu time spent up to now is    10292.5 secs

     End of self-consistent calculation

          k = 0.0000 0.0000 0.0000 ( 10025 PWs)   bands (ev):

   -39.8813 -39.8748 -39.8748 -39.3917 -39.3557 -39.3557 -17.9789 -17.9130
   -17.9130 -17.8586 -17.8332 -17.8332 -17.8045 -17.7740 -17.7740 -17.5261
   -17.4509 -17.4509 -17.2613 -17.2477 -17.2477 -17.2436 -17.2006 -17.2006
     4.7924   7.4935   7.4935   7.5270   7.6240   7.6240   8.4586   8.6905
     9.0540   9.0540   9.3254   9.8559   9.8559   9.9740  10.1375  10.1375
    10.3973  10.5638  10.5638

          k = 0.0000 0.0000 0.5352 ( 10073 PWs)   bands (ev):

   -39.8749 -39.8703 -39.8703 -39.3892 -39.3512 -39.3512 -17.9570 -17.9144
   -17.9144 -17.8859 -17.8859 -17.8833 -17.8085 -17.8085 -17.7969 -17.5577
   -17.4151 -17.4151 -17.3464 -17.2938 -17.2938 -17.2534 -17.2148 -17.2148
     5.6906   8.0037   8.0037   8.0712   8.1710   8.1710   8.4525   8.5349
     8.8158   9.2471   9.2471   9.3100   9.3100   9.7425   9.7425   9.8126
    10.1362  10.4155  10.4155

          k = 0.0000 0.0000-1.0704 ( 10072 PWs)   bands (ev):

   -39.8684 -39.8658 -39.8658 -39.3867 -39.3467 -39.3467 -17.9753 -17.9753
   -17.9390 -17.9341 -17.9203 -17.9203 -17.7946 -17.7946 -17.7421 -17.6035
   -17.4312 -17.3926 -17.3926 -17.3133 -17.3133 -17.2640 -17.2476 -17.2476
     7.5958   7.6934   7.8725   7.8725   8.1419   8.1419   8.1831   8.2243
     8.3312   9.4954   9.4954   9.7055   9.7055   9.7630  10.3224  10.3689
    10.3689  10.4004  10.4004

          k = 0.0000 0.3849 0.0000 ( 10070 PWs)   bands (ev):

   -39.8795 -39.8761 -39.8752 -39.3936 -39.3553 -39.3543 -17.9638 -17.9330
   -17.9285 -17.8708 -17.8384 -17.7957 -17.7906 -17.7801 -17.7765 -17.5899
   -17.4189 -17.3676 -17.2755 -17.2500 -17.2443 -17.2408 -17.2369 -17.2107
     5.2492   6.4484   6.9233   7.5562   7.8791   7.9604   8.3684   8.4765
     8.8990   9.3837   9.7874   9.8154   9.9575  10.0594  10.1865  10.4019
    10.4333  10.6937  10.7008

          k = 0.0000 0.3849 0.5352 ( 10083 PWs)   bands (ev):

   -39.8737 -39.8712 -39.8705 -39.3901 -39.3510 -39.3506 -17.9502 -17.9268
   -17.9175 -17.8872 -17.8801 -17.8669 -17.8282 -17.8057 -17.7899 -17.5757
   -17.4164 -17.3977 -17.3307 -17.2920 -17.2908 -17.2564 -17.2267 -17.2209
     6.0747   7.0994   7.6056   8.0035   8.2464   8.4594   8.5994   8.6926
     8.9369   9.0940   9.2692   9.3272   9.4589   9.4912   9.5708  10.0653
    10.2339  10.4002  10.4393

          k = 0.0000 0.3849-1.0704 ( 10056 PWs)   bands (ev):

   -39.8679 -39.8664 -39.8658 -39.3866 -39.3468 -39.3467 -17.9796 -17.9688
   -17.9397 -17.9313 -17.9204 -17.9019 -17.8294 -17.7839 -17.7374 -17.6020
   -17.4295 -17.4039 -17.3963 -17.3341 -17.3209 -17.2635 -17.2381 -17.2208
     7.4336   7.6156   7.7942   7.8405   7.9680   8.3227   8.4338   8.6576
     8.9510   9.0720   9.1720   9.2630   9.6524   9.7826   9.8837   9.9919
    10.1196  10.6576  10.9732

          k = 0.3333 0.5774 0.0000 ( 10158 PWs)   bands (ev):

   -39.8774 -39.8774 -39.8760 -39.3946 -39.3544 -39.3544 -17.9507 -17.9507
   -17.9296 -17.8430 -17.8430 -17.8234 -17.7849 -17.7849 -17.7824 -17.5772
   -17.3816 -17.3816 -17.2806 -17.2530 -17.2381 -17.2381 -17.2347 -17.2347
     5.8824   6.1661   6.1661   7.5349   7.9426   7.9426   8.4670   8.4670
     8.9891   9.4364   9.8256   9.8625   9.8625  10.1116  10.1116  10.3305
    10.4961  10.4961  10.9919

          k = 0.3333 0.5774 0.5352 ( 10074 PWs)   bands (ev):

   -39.8722 -39.8722 -39.8709 -39.3906 -39.3506 -39.3506 -17.9411 -17.9411
   -17.9125 -17.8838 -17.8790 -17.8790 -17.8077 -17.8016 -17.8016 -17.5923
   -17.4024 -17.4024 -17.3079 -17.2949 -17.2949 -17.2579 -17.2299 -17.2299
     6.5888   6.8834   6.8834   8.1637   8.3332   8.3332   8.6150   8.9711
     8.9711   9.1236   9.1297   9.2569   9.2569   9.5981   9.5981  10.2133
    10.2133  10.4707  10.4708

          k = 0.3333 0.5774-1.0704 ( 10014 PWs)   bands (ev):

   -39.8671 -39.8671 -39.8658 -39.3866 -39.3468 -39.3468 -17.9663 -17.9663
   -17.9457 -17.9298 -17.9298 -17.8950 -17.8484 -17.7564 -17.7564 -17.5900
   -17.4330 -17.4330 -17.3573 -17.3573 -17.3335 -17.2632 -17.2199 -17.2199
     7.3807   7.6748   7.8451   7.8451   7.9810   7.9810   8.8255   8.8434
     9.0393   9.0393   9.0630   9.0630   9.5218   9.9057   9.9057   9.9837
    10.2700  10.2700  10.8996

     the Fermi energy is     9.4782 ev

!    total energy              =    -594.59042564 Ry
     estimated scf accuracy    <          3.8E-09 Ry
     smearing contrib. (-TS)   =      -0.00827329 Ry
     internal energy E=F+TS    =    -594.58215235 Ry

     The total energy is F=E-TS. E is the sum of the following terms:
     one-electron contribution =    -194.84966627 Ry
     hartree contribution      =     112.03904940 Ry
     xc contribution           =    -105.54483045 Ry
     ewald contribution        =    -406.22670503 Ry

     convergence has been achieved in   7 iterations

     negative rho (up, down):  3.741E-01 0.000E+00

     Forces acting on atoms (cartesian axes, Ry/au):

     atom    1 type  1   force =    -0.00170260   -0.00294900    0.00000000
     atom    2 type  1   force =     0.00340521    0.00000000    0.00000000
     atom    3 type  1   force =    -0.00170260    0.00294900   -0.00000000
     atom    4 type  1   force =    -0.00418760   -0.00725314    0.00000000
     atom    5 type  1   force =     0.00837521    0.00000000    0.00000000
     atom    6 type  1   force =    -0.00418760    0.00725314   -0.00000000

     Total force =     0.015659     Total SCF correction =     0.000103
     Energy error            =      1.3E-03 Ry
     Gradient error          =      8.4E-03 Ry/Bohr

     number of scf cycles    =   5
     number of bfgs steps    =   4

     energy             old  =    -594.5890894583 Ry
     energy             new  =    -594.5904256352 Ry

     CASE: energy            _new < energy            _old

     new trust radius        =       0.0576187704 bohr
     new conv_thr            =       0.0000000838 Ry


ATOMIC_POSITIONS (angstrom)
Zr               0.9063197224        1.5697917938        0.0000000000
Zr               5.9657305553       -0.0000000000        0.0000000000
Zr              -2.9828652776        5.1664742062        0.0000000000
Zr               2.2739929538        3.9386703906        1.8167690000
Zr               3.2303850924        0.0000000000        1.8167690000
Zr              -1.6151920462        2.7975956094        1.8167690000



     Writing config-only to output data dir ./tmp/Zr6CoTe2.save/ :
     XML data file
     NEW-OLD atomic charge density approx. for the potential

     negative rho (up, down):  3.743E-01 0.000E+00

     total cpu time spent up to now is    10297.6 secs

     Self-consistent Calculation

     iteration #  1     ecut=    60.00 Ry     beta= 0.40
     Davidson diagonalization with overlap
     c_bands:  1 eigenvalues not converged
     ethr =  1.00E-06,  avg # of iterations = 10.1

     negative rho (up, down):  3.743E-01 0.000E+00

     total cpu time spent up to now is    10345.6 secs

     total energy              =    -594.59158783 Ry
     estimated scf accuracy    <       0.00036159 Ry

     iteration #  2     ecut=    60.00 Ry     beta= 0.40
     Davidson diagonalization with overlap
     ethr =  5.02E-07,  avg # of iterations =  3.2

     negative rho (up, down):  3.743E-01 0.000E+00

     total cpu time spent up to now is    10364.6 secs

     total energy              =    -594.59160382 Ry
     estimated scf accuracy    <       0.00007415 Ry

     iteration #  3     ecut=    60.00 Ry     beta= 0.40
     Davidson diagonalization with overlap
     ethr =  1.03E-07,  avg # of iterations =  4.7

     negative rho (up, down):  3.743E-01 0.000E+00

     total cpu time spent up to now is    10385.3 secs

     total energy              =    -594.59159509 Ry
     estimated scf accuracy    <       0.00030636 Ry

     iteration #  4     ecut=    60.00 Ry     beta= 0.40
     Davidson diagonalization with overlap
     ethr =  1.03E-07,  avg # of iterations =  3.8

     negative rho (up, down):  3.743E-01 0.000E+00

     total cpu time spent up to now is    10403.0 secs

     total energy              =    -594.59162390 Ry
     estimated scf accuracy    <       0.00000523 Ry

     iteration #  5     ecut=    60.00 Ry     beta= 0.40
     Davidson diagonalization with overlap
     ethr =  7.26E-09,  avg # of iterations =  4.4

     negative rho (up, down):  3.743E-01 0.000E+00

     total cpu time spent up to now is    10421.0 secs

     total energy              =    -594.59162437 Ry
     estimated scf accuracy    <       0.00000357 Ry

     iteration #  6     ecut=    60.00 Ry     beta= 0.40
     Davidson diagonalization with overlap
     ethr =  4.96E-09,  avg # of iterations =  3.7

     negative rho (up, down):  3.743E-01 0.000E+00

     total cpu time spent up to now is    10438.1 secs

     total energy              =    -594.59162493 Ry
     estimated scf accuracy    <       0.00000119 Ry

     iteration #  7     ecut=    60.00 Ry     beta= 0.40
     Davidson diagonalization with overlap
     ethr =  1.66E-09,  avg # of iterations =  2.0

     negative rho (up, down):  3.743E-01 0.000E+00

     total cpu time spent up to now is    10453.4 secs

     End of self-consistent calculation

          k = 0.0000 0.0000 0.0000 ( 10025 PWs)   bands (ev):

   -39.8915 -39.8851 -39.8851 -39.3943 -39.3546 -39.3545 -17.9864 -17.9211
   -17.9211 -17.8670 -17.8362 -17.8362 -17.8128 -17.7838 -17.7838 -17.5365
   -17.4595 -17.4595 -17.2669 -17.2484 -17.2484 -17.2417 -17.1918 -17.1918
     4.7922   7.4998   7.4998   7.5297   7.6353   7.6353   8.4541   8.6993
     9.0531   9.0531   9.2784   9.8173   9.8173   9.9647  10.1541  10.1541
    10.4356  10.6080  10.6080

          k = 0.0000 0.0000 0.5352 ( 10073 PWs)   bands (ev):

   -39.8852 -39.8806 -39.8806 -39.3916 -39.3501 -39.3501 -17.9661 -17.9218
   -17.9218 -17.8946 -17.8921 -17.8921 -17.8146 -17.8146 -17.8031 -17.5663
   -17.4248 -17.4248 -17.3528 -17.2941 -17.2941 -17.2496 -17.2065 -17.2065
     5.6891   7.9962   7.9962   8.0668   8.1844   8.1844   8.4445   8.5283
     8.7940   9.2678   9.2678   9.3002   9.3002   9.7385   9.7385   9.7929
    10.1772  10.4490  10.4490

          k = 0.0000 0.0000-1.0704 ( 10072 PWs)   bands (ev):

   -39.8789 -39.8761 -39.8761 -39.3890 -39.3456 -39.3456 -17.9808 -17.9808
   -17.9520 -17.9452 -17.9263 -17.9263 -17.8022 -17.8022 -17.7443 -17.6131
   -17.4387 -17.4026 -17.4026 -17.3160 -17.3160 -17.2583 -17.2370 -17.2370
     7.5955   7.6819   7.8583   7.8583   8.1542   8.1542   8.1770   8.1969
     8.3143   9.5219   9.5219   9.7462   9.7462   9.8139  10.3526  10.3657
    10.3657  10.3946  10.3946

          k = 0.0000 0.3849 0.0000 ( 10070 PWs)   bands (ev):

   -39.8897 -39.8864 -39.8855 -39.3962 -39.3541 -39.3532 -17.9716 -17.9398
   -17.9348 -17.8791 -17.8427 -17.8045 -17.7975 -17.7896 -17.7861 -17.5984
   -17.4273 -17.3778 -17.2806 -17.2479 -17.2452 -17.2382 -17.2302 -17.2019
     5.2498   6.4511   6.9271   7.5582   7.8840   7.9620   8.3893   8.4862
     8.9026   9.3506   9.7855   9.8217   9.9746  10.0356  10.1815  10.3798
    10.4346  10.6534  10.7326

          k = 0.0000 0.3849 0.5352 ( 10083 PWs)   bands (ev):

   -39.8840 -39.8815 -39.8808 -39.3925 -39.3499 -39.3494 -17.9586 -17.9337
   -17.9243 -17.8959 -17.8878 -17.8758 -17.8362 -17.8113 -17.7954 -17.5848
   -17.4254 -17.4075 -17.3350 -17.2943 -17.2924 -17.2526 -17.2176 -17.2119
     6.0738   7.0991   7.6074   7.9989   8.2442   8.4617   8.6074   8.6889
     8.9485   9.0889   9.2723   9.3214   9.4620   9.4827   9.5587  10.0843
    10.2644  10.4044  10.4525

          k = 0.0000 0.3849-1.0704 ( 10056 PWs)   bands (ev):

   -39.8783 -39.8767 -39.8761 -39.3889 -39.3456 -39.3456 -17.9866 -17.9747
   -17.9480 -17.9415 -17.9275 -17.9105 -17.8339 -17.7911 -17.7433 -17.6126
   -17.4378 -17.4132 -17.4010 -17.3375 -17.3245 -17.2577 -17.2282 -17.2117
     7.4307   7.6084   7.7925   7.8508   7.9630   8.3317   8.4249   8.6387
     8.9362   9.0960   9.1758   9.2629   9.6623   9.7992   9.8783   9.9660
    10.1398  10.6367  10.9214

          k = 0.3333 0.5774 0.0000 ( 10158 PWs)   bands (ev):

   -39.8877 -39.8877 -39.8861 -39.3971 -39.3533 -39.3532 -17.9582 -17.9582
   -17.9350 -17.8476 -17.8476 -17.8363 -17.7945 -17.7945 -17.7911 -17.5839
   -17.3906 -17.3906 -17.2858 -17.2509 -17.2392 -17.2392 -17.2252 -17.2252
     5.8846   6.1679   6.1679   7.5361   7.9434   7.9434   8.4874   8.4874
     8.9863   9.3865   9.8682   9.8822   9.8822  10.1108  10.1108  10.2899
    10.4678  10.4678  11.0593

          k = 0.3333 0.5774 0.5352 ( 10074 PWs)   bands (ev):

   -39.8826 -39.8826 -39.8811 -39.3930 -39.3494 -39.3494 -17.9484 -17.9484
   -17.9196 -17.8935 -17.8866 -17.8866 -17.8164 -17.8073 -17.8073 -17.6009
   -17.4116 -17.4116 -17.3143 -17.2967 -17.2967 -17.2541 -17.2201 -17.2201
     6.5891   6.8834   6.8834   8.1467   8.3370   8.3370   8.6312   8.9895
     8.9895   9.1172   9.1198   9.2565   9.2565   9.5783   9.5783  10.2336
    10.2336  10.4699  10.4970

          k = 0.3333 0.5774-1.0704 ( 10014 PWs)   bands (ev):

   -39.8775 -39.8775 -39.8761 -39.3889 -39.3456 -39.3456 -17.9721 -17.9721
   -17.9569 -17.9377 -17.9377 -17.9039 -17.8518 -17.7633 -17.7633 -17.6013
   -17.4411 -17.4411 -17.3592 -17.3592 -17.3410 -17.2575 -17.2110 -17.2110
     7.3745   7.6804   7.8374   7.8374   7.9982   7.9982   8.7946   8.8598
     9.0389   9.0389   9.0571   9.0571   9.5196   9.8980   9.8980   9.9966
    10.2413  10.2413  10.9000

     the Fermi energy is     9.4707 ev

!    total energy              =    -594.59162501 Ry
     estimated scf accuracy    <       0.00000005 Ry
     smearing contrib. (-TS)   =      -0.00821426 Ry
     internal energy E=F+TS    =    -594.58341075 Ry

     The total energy is F=E-TS. E is the sum of the following terms:
     one-electron contribution =    -194.44398986 Ry
     hartree contribution      =     111.82385665 Ry
     xc contribution           =    -105.53897335 Ry
     ewald contribution        =    -406.42430419 Ry

     convergence has been achieved in   7 iterations

     negative rho (up, down):  3.743E-01 0.000E+00

     Forces acting on atoms (cartesian axes, Ry/au):

     atom    1 type  1   force =    -0.00036685   -0.00063540   -0.00000000
     atom    2 type  1   force =     0.00073369    0.00000000    0.00000000
     atom    3 type  1   force =    -0.00036685    0.00063540    0.00000000
     atom    4 type  1   force =    -0.00182588   -0.00316252    0.00000000
     atom    5 type  1   force =     0.00365176    0.00000000   -0.00000000
     atom    6 type  1   force =    -0.00182588    0.00316252    0.00000000

     Total force =     0.006451     Total SCF correction =     0.000564
     Energy error            =      1.2E-03 Ry
     Gradient error          =      3.7E-03 Ry/Bohr

     number of scf cycles    =   6
     number of bfgs steps    =   5

     energy             old  =    -594.5904256352 Ry
     energy             new  =    -594.5916250054 Ry

     CASE: energy            _new < energy            _old

     new trust radius        =       0.0396804033 bohr
     new conv_thr            =       0.0000000365 Ry


ATOMIC_POSITIONS (angstrom)
Zr               0.9023119745        1.5628501709       -0.0000000000
Zr               5.9737460510       -0.0000000000        0.0000000000
Zr              -2.9868730255        5.1734158291        0.0000000000
Zr               2.2634939712        3.9204856194        1.8167690000
Zr               3.2513830576        0.0000000000        1.8167690000
Zr              -1.6256910288        2.8157803806        1.8167690000



     Writing config-only to output data dir ./tmp/Zr6CoTe2.save/ :
     XML data file
     NEW-OLD atomic charge density approx. for the potential

     negative rho (up, down):  3.738E-01 0.000E+00

     total cpu time spent up to now is    10458.4 secs

     Self-consistent Calculation

     iteration #  1     ecut=    60.00 Ry     beta= 0.40
     Davidson diagonalization with overlap
     ethr =  1.00E-06,  avg # of iterations =  7.7

     negative rho (up, down):  3.737E-01 0.000E+00

     total cpu time spent up to now is    10503.0 secs

     total energy              =    -594.59182577 Ry
     estimated scf accuracy    <       0.00018280 Ry

     iteration #  2     ecut=    60.00 Ry     beta= 0.40
     Davidson diagonalization with overlap
     ethr =  2.54E-07,  avg # of iterations =  3.8

     negative rho (up, down):  3.737E-01 0.000E+00

     total cpu time spent up to now is    10520.6 secs

     total energy              =    -594.59184992 Ry
     estimated scf accuracy    <       0.00002648 Ry

     iteration #  3     ecut=    60.00 Ry     beta= 0.40
     Davidson diagonalization with overlap
     ethr =  3.68E-08,  avg # of iterations =  3.3

     negative rho (up, down):  3.737E-01 0.000E+00

     total cpu time spent up to now is    10538.4 secs

     total energy              =    -594.59185375 Ry
     estimated scf accuracy    <       0.00000543 Ry

     iteration #  4     ecut=    60.00 Ry     beta= 0.40
     Davidson diagonalization with overlap
     ethr =  7.55E-09,  avg # of iterations =  5.0

     negative rho (up, down):  3.737E-01 0.000E+00

     total cpu time spent up to now is    10559.4 secs

     total energy              =    -594.59185337 Ry
     estimated scf accuracy    <       0.00002025 Ry

     iteration #  5     ecut=    60.00 Ry     beta= 0.40
     Davidson diagonalization with overlap
     ethr =  7.55E-09,  avg # of iterations =  3.7

     negative rho (up, down):  3.737E-01 0.000E+00

     total cpu time spent up to now is    10577.3 secs

     total energy              =    -594.59185546 Ry
     estimated scf accuracy    <       0.00000060 Ry

     iteration #  6     ecut=    60.00 Ry     beta= 0.40
     Davidson diagonalization with overlap
     ethr =  8.40E-10,  avg # of iterations =  2.9

     negative rho (up, down):  3.737E-01 0.000E+00

     total cpu time spent up to now is    10594.3 secs

     total energy              =    -594.59185554 Ry
     estimated scf accuracy    <       0.00000006 Ry

     iteration #  7     ecut=    60.00 Ry     beta= 0.40
     Davidson diagonalization with overlap
     ethr =  7.89E-11,  avg # of iterations =  4.6

     negative rho (up, down):  3.737E-01 0.000E+00

     total cpu time spent up to now is    10612.4 secs

     End of self-consistent calculation

          k = 0.0000 0.0000 0.0000 ( 10025 PWs)   bands (ev):

   -39.8978 -39.8915 -39.8915 -39.3961 -39.3538 -39.3538 -17.9913 -17.9265
   -17.9265 -17.8731 -17.8382 -17.8382 -17.8178 -17.7897 -17.7897 -17.5429
   -17.4657 -17.4657 -17.2705 -17.2488 -17.2488 -17.2406 -17.1858 -17.1858
     4.7923   7.5026   7.5026   7.5307   7.6444   7.6444   8.4488   8.7047
     9.0523   9.0523   9.2498   9.7908   9.7908   9.9563  10.1648  10.1648
    10.4598  10.6403  10.6403

          k = 0.0000 0.0000 0.5352 ( 10073 PWs)   bands (ev):

   -39.8916 -39.8870 -39.8870 -39.3934 -39.3494 -39.3494 -17.9721 -17.9266
   -17.9266 -17.9018 -17.8959 -17.8959 -17.8186 -17.8186 -17.8074 -17.5718
   -17.4315 -17.4315 -17.3569 -17.2942 -17.2942 -17.2475 -17.2007 -17.2007
     5.6883   7.9912   7.9912   8.0630   8.1937   8.1937   8.4368   8.5236
     8.7832   9.2791   9.2791   9.2952   9.2952   9.7356   9.7356   9.7768
    10.2036  10.4707  10.4707

          k = 0.0000 0.0000-1.0704 ( 10072 PWs)   bands (ev):

   -39.8854 -39.8826 -39.8826 -39.3906 -39.3449 -39.3449 -17.9841 -17.9841
   -17.9603 -17.9523 -17.9303 -17.9303 -17.8073 -17.8073 -17.7461 -17.6194
   -17.4433 -17.4094 -17.4094 -17.3174 -17.3173 -17.2549 -17.2300 -17.2300
     7.5953   7.6742   7.8495   7.8495   8.1629   8.1629   8.1731   8.1803
     8.3031   9.5387   9.5387   9.7709   9.7709   9.8470  10.3631  10.3631
    10.3741  10.3909  10.3909

          k = 0.0000 0.3849 0.0000 ( 10070 PWs)   bands (ev):

   -39.8961 -39.8928 -39.8919 -39.3979 -39.3534 -39.3526 -17.9769 -17.9444
   -17.9389 -17.8850 -17.8456 -17.8098 -17.8022 -17.7953 -17.7918 -17.6036
   -17.4334 -17.3850 -17.2839 -17.2468 -17.2457 -17.2389 -17.2231 -17.1958
     5.2504   6.4531   6.9298   7.5589   7.8874   7.9631   8.4024   8.4927
     8.9041   9.3280   9.7836   9.8240   9.9857  10.0188  10.1750  10.3650
    10.4343  10.6273  10.7507

          k = 0.0000 0.3849 0.5352 ( 10083 PWs)   bands (ev):

   -39.8905 -39.8880 -39.8872 -39.3943 -39.3492 -39.3488 -17.9643 -17.9382
   -17.9287 -17.9016 -17.8923 -17.8812 -17.8415 -17.8150 -17.7991 -17.5905
   -17.4318 -17.4144 -17.3379 -17.2956 -17.2931 -17.2504 -17.2114 -17.2058
     6.0734   7.0990   7.6087   7.9954   8.2421   8.4630   8.6127   8.6863
     8.9565   9.0855   9.2742   9.3178   9.4621   9.4797   9.5501  10.0970
    10.2844  10.4062  10.4554

          k = 0.0000 0.3849-1.0704 ( 10056 PWs)   bands (ev):

   -39.8848 -39.8832 -39.8826 -39.3906 -39.3449 -39.3449 -17.9912 -17.9782
   -17.9536 -17.9477 -17.9322 -17.9159 -17.8370 -17.7959 -17.7474 -17.6195
   -17.4437 -17.4197 -17.4038 -17.3395 -17.3263 -17.2544 -17.2215 -17.2056
     7.4291   7.6037   7.7914   7.8579   7.9605   8.3350   8.4221   8.6262
     8.9258   9.1114   9.1797   9.2630   9.6688   9.8057   9.8755   9.9481
    10.1535  10.6233  10.9093

          k = 0.3333 0.5774 0.0000 ( 10158 PWs)   bands (ev):

   -39.8941 -39.8941 -39.8924 -39.3988 -39.3526 -39.3526 -17.9632 -17.9632
   -17.9386 -17.8506 -17.8506 -17.8455 -17.8003 -17.8003 -17.7962 -17.5881
   -17.3971 -17.3971 -17.2890 -17.2498 -17.2398 -17.2398 -17.2186 -17.2186
     5.8864   6.1693   6.1693   7.5366   7.9440   7.9440   8.5007   8.5007
     8.9835   9.3535   9.8952   9.8952   9.8994  10.1074  10.1074  10.2604
    10.4485  10.4485  11.1039

          k = 0.3333 0.5774 0.5352 ( 10074 PWs)   bands (ev):

   -39.8891 -39.8891 -39.8875 -39.3947 -39.3488 -39.3488 -17.9533 -17.9533
   -17.9242 -17.9000 -17.8912 -17.8912 -17.8222 -17.8111 -17.8111 -17.6063
   -17.4181 -17.4181 -17.3182 -17.2977 -17.2977 -17.2518 -17.2136 -17.2136
     6.5896   6.8836   6.8836   8.1346   8.3392   8.3392   8.6434   9.0021
     9.0021   9.1120   9.1121   9.2566   9.2566   9.5650   9.5650  10.2458
    10.2458  10.4708  10.5157

          k = 0.3333 0.5774-1.0704 ( 10014 PWs)   bands (ev):

   -39.8840 -39.8840 -39.8826 -39.3906 -39.3449 -39.3449 -17.9756 -17.9756
   -17.9640 -17.9429 -17.9429 -17.9096 -17.8543 -17.7681 -17.7681 -17.6087
   -17.4468 -17.4468 -17.3600 -17.3600 -17.3457 -17.2541 -17.2049 -17.2049
     7.3709   7.6841   7.8326   7.8326   8.0099   8.0099   8.7751   8.8700
     9.0377   9.0377   9.0538   9.0538   9.5183   9.8919   9.8919  10.0057
    10.2224  10.2224  10.9026

     the Fermi energy is     9.4662 ev

!    total energy              =    -594.59185556 Ry
     estimated scf accuracy    <          2.7E-09 Ry
     smearing contrib. (-TS)   =      -0.00819038 Ry
     internal energy E=F+TS    =    -594.58366518 Ry

     The total energy is F=E-TS. E is the sum of the following terms:
     one-electron contribution =    -194.18796494 Ry
     hartree contribution      =     111.68883747 Ry
     xc contribution           =    -105.53581331 Ry
     ewald contribution        =    -406.54872441 Ry

     convergence has been achieved in   7 iterations

     negative rho (up, down):  3.737E-01 0.000E+00

     Forces acting on atoms (cartesian axes, Ry/au):

     atom    1 type  1   force =     0.00052998    0.00091794    0.00000000
     atom    2 type  1   force =    -0.00105995    0.00000000    0.00000000
     atom    3 type  1   force =     0.00052998   -0.00091794    0.00000000
     atom    4 type  1   force =    -0.00013505   -0.00023391    0.00000000
     atom    5 type  1   force =     0.00027010    0.00000000    0.00000000
     atom    6 type  1   force =    -0.00013505    0.00023391    0.00000000

     Total force =     0.001895     Total SCF correction =     0.000091
     Energy error            =      2.3E-04 Ry
     Gradient error          =      1.1E-03 Ry/Bohr

     number of scf cycles    =   7
     number of bfgs steps    =   6

     energy             old  =    -594.5916250054 Ry
     energy             new  =    -594.5918555585 Ry

     CASE: energy            _new < energy            _old

     new trust radius        =       0.0014555885 bohr
     new conv_thr            =       0.0000000106 Ry


ATOMIC_POSITIONS (angstrom)
Zr               0.9026971066        1.5635172393        0.0000000000
Zr               5.9729757867       -0.0000000000        0.0000000000
Zr              -2.9864878934        5.1727487607        0.0000000000
Zr               2.2637073187        3.9208551481        1.8167690000
Zr               3.2509563626        0.0000000000        1.8167690000
Zr              -1.6254776813        2.8154108519        1.8167690000



     Writing config-only to output data dir ./tmp/Zr6CoTe2.save/ :
     XML data file
     NEW-OLD atomic charge density approx. for the potential

     negative rho (up, down):  3.738E-01 0.000E+00

     total cpu time spent up to now is    10617.5 secs

     Self-consistent Calculation

     iteration #  1     ecut=    60.00 Ry     beta= 0.40
     Davidson diagonalization with overlap
     ethr =  1.00E-06,  avg # of iterations =  2.0

     Threshold (ethr) on eigenvalues was too large:
     Diagonalizing with lowered threshold

     Davidson diagonalization with overlap
     ethr =  5.12E-09,  avg # of iterations =  4.6

     negative rho (up, down):  3.738E-01 0.000E+00

     total cpu time spent up to now is    10658.6 secs

     total energy              =    -594.59185692 Ry
     estimated scf accuracy    <       0.00000424 Ry

     iteration #  2     ecut=    60.00 Ry     beta= 0.40
     Davidson diagonalization with overlap
     ethr =  5.88E-09,  avg # of iterations =  5.1

     negative rho (up, down):  3.738E-01 0.000E+00

     total cpu time spent up to now is    10679.0 secs

     total energy              =    -594.59185551 Ry
     estimated scf accuracy    <       0.00004366 Ry

     iteration #  3     ecut=    60.00 Ry     beta= 0.40
     Davidson diagonalization with overlap
     ethr =  5.88E-09,  avg # of iterations =  5.0

     negative rho (up, down):  3.738E-01 0.000E+00

     total cpu time spent up to now is    10698.1 secs

     total energy              =    -594.59185897 Ry
     estimated scf accuracy    <       0.00000003 Ry

     iteration #  4     ecut=    60.00 Ry     beta= 0.40
     Davidson diagonalization with overlap
     ethr =  4.05E-11,  avg # of iterations =  6.1

     negative rho (up, down):  3.738E-01 0.000E+00

     total cpu time spent up to now is    10721.0 secs

     total energy              =    -594.59185899 Ry
     estimated scf accuracy    <       0.00000004 Ry

     iteration #  5     ecut=    60.00 Ry     beta= 0.40
     Davidson diagonalization with overlap
     ethr =  4.05E-11,  avg # of iterations =  2.7

     negative rho (up, down):  3.738E-01 0.000E+00

     total cpu time spent up to now is    10737.2 secs

     End of self-consistent calculation

          k = 0.0000 0.0000 0.0000 ( 10025 PWs)   bands (ev):

   -39.8972 -39.8909 -39.8909 -39.3967 -39.3546 -39.3546 -17.9908 -17.9259
   -17.9259 -17.8729 -17.8379 -17.8379 -17.8173 -17.7891 -17.7891 -17.5423
   -17.4659 -17.4659 -17.2709 -17.2496 -17.2496 -17.2416 -17.1868 -17.1868
     4.7922   7.5024   7.5024   7.5308   7.6438   7.6438   8.4485   8.7041
     9.0523   9.0523   9.2524   9.7911   9.7911   9.9563  10.1646  10.1646
    10.4587  10.6404  10.6404

          k = 0.0000 0.0000 0.5352 ( 10073 PWs)   bands (ev):

   -39.8910 -39.8864 -39.8864 -39.3939 -39.3502 -39.3502 -17.9716 -17.9260
   -17.9260 -17.9013 -17.8954 -17.8954 -17.8182 -17.8182 -17.8070 -17.5713
   -17.4317 -17.4317 -17.3573 -17.2949 -17.2949 -17.2485 -17.2017 -17.2017
     5.6883   7.9914   7.9914   8.0634   8.1934   8.1934   8.4369   8.5235
     8.7847   9.2784   9.2784   9.2950   9.2951   9.7362   9.7362   9.7776
    10.2020  10.4696  10.4696

          k = 0.0000 0.0000-1.0704 ( 10072 PWs)   bands (ev):

   -39.8848 -39.8819 -39.8819 -39.3912 -39.3457 -39.3457 -17.9837 -17.9837
   -17.9597 -17.9517 -17.9298 -17.9298 -17.8069 -17.8069 -17.7456 -17.6190
   -17.4438 -17.4095 -17.4095 -17.3178 -17.3178 -17.2560 -17.2312 -17.2312
     7.5953   7.6744   7.8497   7.8497   8.1627   8.1627   8.1741   8.1817
     8.3033   9.5377   9.5377   9.7694   9.7694   9.8451  10.3627  10.3627
    10.3737  10.3914  10.3914

          k = 0.0000 0.3849 0.0000 ( 10070 PWs)   bands (ev):

   -39.8955 -39.8921 -39.8912 -39.3985 -39.3542 -39.3534 -17.9763 -17.9439
   -17.9384 -17.8847 -17.8453 -17.8093 -17.8018 -17.7947 -17.7912 -17.6032
   -17.4336 -17.3850 -17.2844 -17.2477 -17.2464 -17.2396 -17.2242 -17.1969
     5.2503   6.4529   6.9297   7.5590   7.8872   7.9629   8.4018   8.4923
     8.9037   9.3285   9.7849   9.8239   9.9854  10.0190  10.1750  10.3655
    10.4340  10.6277  10.7492

          k = 0.0000 0.3849 0.5352 ( 10083 PWs)   bands (ev):

   -39.8898 -39.8873 -39.8866 -39.3948 -39.3500 -39.3496 -17.9637 -17.9377
   -17.9281 -17.9011 -17.8918 -17.8807 -17.8412 -17.8147 -17.7987 -17.5900
   -17.4320 -17.4145 -17.3383 -17.2962 -17.2937 -17.2514 -17.2124 -17.2068
     6.0734   7.0990   7.6087   7.9956   8.2427   8.4629   8.6125   8.6863
     8.9561   9.0859   9.2740   9.3180   9.4622   9.4798   9.5498  10.0965
    10.2834  10.4063  10.4554

          k = 0.0000 0.3849-1.0704 ( 10056 PWs)   bands (ev):

   -39.8842 -39.8825 -39.8819 -39.3911 -39.3457 -39.3457 -17.9908 -17.9777
   -17.9530 -17.9472 -17.9317 -17.9153 -17.8368 -17.7956 -17.7469 -17.6191
   -17.4439 -17.4198 -17.4044 -17.3400 -17.3268 -17.2555 -17.2227 -17.2067
     7.4292   7.6040   7.7916   7.8578   7.9605   8.3352   8.4225   8.6269
     8.9260   9.1101   9.1797   9.2630   9.6688   9.8051   9.8755   9.9490
    10.1525  10.6241  10.9104

          k = 0.3333 0.5774 0.0000 ( 10158 PWs)   bands (ev):

   -39.8935 -39.8935 -39.8918 -39.3994 -39.3534 -39.3534 -17.9626 -17.9626
   -17.9380 -17.8503 -17.8503 -17.8451 -17.7997 -17.7997 -17.7956 -17.5876
   -17.3973 -17.3973 -17.2895 -17.2508 -17.2405 -17.2405 -17.2197 -17.2197
     5.8864   6.1691   6.1691   7.5370   7.9437   7.9437   8.5001   8.5001
     8.9837   9.3542   9.8949   9.8949   9.8994  10.1075  10.1075  10.2611
    10.4485  10.4485  11.1025

          k = 0.3333 0.5774 0.5352 ( 10074 PWs)   bands (ev):

   -39.8884 -39.8884 -39.8869 -39.3953 -39.3496 -39.3496 -17.9528 -17.9528
   -17.9237 -17.8995 -17.8907 -17.8907 -17.8218 -17.8108 -17.8108 -17.6059
   -17.4183 -17.4183 -17.3185 -17.2983 -17.2983 -17.2529 -17.2147 -17.2147
     6.5896   6.8835   6.8835   8.1355   8.3391   8.3391   8.6439   9.0016
     9.0016   9.1117   9.1124   9.2566   9.2566   9.5650   9.5650  10.2454
    10.2454  10.4712  10.5153

          k = 0.3333 0.5774-1.0704 ( 10014 PWs)   bands (ev):

   -39.8833 -39.8833 -39.8819 -39.3911 -39.3457 -39.3457 -17.9751 -17.9751
   -17.9635 -17.9424 -17.9424 -17.9090 -17.8541 -17.7677 -17.7677 -17.6082
   -17.4471 -17.4471 -17.3607 -17.3607 -17.3459 -17.2552 -17.2060 -17.2060
     7.3711   7.6845   7.8327   7.8327   8.0095   8.0095   8.7767   8.8689
     9.0376   9.0376   9.0540   9.0540   9.5186   9.8917   9.8917  10.0057
    10.2234  10.2234  10.9029

     the Fermi energy is     9.4662 ev

!    total energy              =    -594.59185900 Ry
     estimated scf accuracy    <          1.2E-09 Ry
     smearing contrib. (-TS)   =      -0.00819842 Ry
     internal energy E=F+TS    =    -594.58366058 Ry

     The total energy is F=E-TS. E is the sum of the following terms:
     one-electron contribution =    -194.16349675 Ry
     hartree contribution      =     111.67657087 Ry
     xc contribution           =    -105.53570039 Ry
     ewald contribution        =    -406.56103431 Ry

     convergence has been achieved in   5 iterations

     negative rho (up, down):  3.738E-01 0.000E+00

     Forces acting on atoms (cartesian axes, Ry/au):

     atom    1 type  1   force =     0.00042356    0.00073362    0.00000000
     atom    2 type  1   force =    -0.00084711    0.00000000    0.00000000
     atom    3 type  1   force =     0.00042356   -0.00073362    0.00000000
     atom    4 type  1   force =    -0.00016432   -0.00028461    0.00000000
     atom    5 type  1   force =     0.00032865    0.00000000    0.00000000
     atom    6 type  1   force =    -0.00016432    0.00028461    0.00000000

     Total force =     0.001574     Total SCF correction =     0.000108
     Energy error            =      3.4E-06 Ry
     Gradient error          =      8.5E-04 Ry/Bohr

     bfgs converged in   8 scf cycles and   7 bfgs steps
     (criteria: energy <  1.0E-04 Ry, force <  1.0E-03 Ry/Bohr)

     End of BFGS Geometry Optimization

     Final energy             =    -594.5918589991 Ry

     File ./tmp/Zr6CoTe2.bfgs deleted, as requested
Begin final coordinates

ATOMIC_POSITIONS (angstrom)
Zr               0.9026971066        1.5635172393        0.0000000000
Zr               5.9729757867       -0.0000000000        0.0000000000
Zr              -2.9864878934        5.1727487607        0.0000000000
Zr               2.2637073187        3.9208551481        1.8167690000
Zr               3.2509563626        0.0000000000        1.8167690000
Zr              -1.6254776813        2.8154108519        1.8167690000
End final coordinates



     Writing all to output data dir ./tmp/Zr6CoTe2.save/ :
     XML data file, charge density, pseudopotentials, collected wavefunctions

     init_run     :      9.51s CPU      9.80s WALL (       1 calls)
     electrons    :   1281.08s CPU  10691.89s WALL (       8 calls)
     update_pot   :      1.51s CPU      1.55s WALL (       7 calls)
     forces       :     32.83s CPU     33.83s WALL (       8 calls)

     Called by init_run:
     wfcinit      :      8.59s CPU      8.72s WALL (       1 calls)
     potinit      :      0.20s CPU      0.23s WALL (       1 calls)
     hinit0       :      0.20s CPU      0.21s WALL (       1 calls)

     Called by electrons:
     c_bands      :   1087.86s CPU  10477.98s WALL (      62 calls)
     sum_band     :    151.24s CPU    164.49s WALL (      62 calls)
     v_of_rho     :     12.24s CPU     13.26s WALL (      65 calls)
     newd         :     31.61s CPU     38.47s WALL (      65 calls)
     mix_rho      :      1.87s CPU      2.07s WALL (      62 calls)

     Called by c_bands:
     init_us_2    :      9.19s CPU      9.36s WALL (    1197 calls)
     cegterg      :   1071.26s CPU  10460.94s WALL (     558 calls)

     Called by *egterg:
     cdiaghg      :     10.37s CPU   9367.45s WALL (    2734 calls)
     h_psi        :    603.38s CPU    624.25s WALL (    2851 calls)
     s_psi        :    108.63s CPU    111.06s WALL (    2851 calls)
     g_psi        :      1.52s CPU      1.56s WALL (    2284 calls)

     Called by h_psi:
     h_psi:calbec :    127.92s CPU    131.21s WALL (    2851 calls)
     vloc_psi     :    363.52s CPU    378.39s WALL (    2851 calls)
     add_vuspsi   :    109.43s CPU    112.10s WALL (    2851 calls)

     General routines
     calbec       :    192.78s CPU    197.78s WALL (    3697 calls)
     fft          :      8.75s CPU      9.55s WALL (     929 calls)
     ffts         :      0.50s CPU      0.55s WALL (     127 calls)
     fftw         :    328.84s CPU    342.64s WALL (  160494 calls)
     interpolate  :      1.06s CPU      1.13s WALL (      65 calls)

     Parallel routines

     PWSCF        :  22m 8.65s CPU      2h59m WALL


   This run was terminated on:  15:59:16   2Aug2025            

=------------------------------------------------------------------------------=
   JOB DONE.
=------------------------------------------------------------------------------=
