
     Program PWSCF v.7.4.1 starts on  3Aug2025 at 14:56:28 

     This program is part of the open-source Quantum ESPRESSO suite
     for quantum simulation of materials; please cite
         "P. Giannozzi et al., J. Phys.:Condens. Matter 21 395502 (2009);
         "P. Giannozzi et al., J. Phys.:Condens. Matter 29 465901 (2017);
         "P. Giannozzi et al., J. Chem. Phys. 152 154105 (2020);
          URL http://www.quantum-espresso.org", 
     in publications or presentations arising from this work. More details at
     http://www.quantum-espresso.org/quote

     Parallel version (MPI), running on     2 processors

     MPI processes distributed on     1 nodes
     6361 MiB available memory on the printing compute node when the environment starts

     Waiting for input...
     Reading input from standard input
Warning: card &CELL ignored
Warning: card / ignored

     Current dimensions of program PWSCF are:
     Max number of different atomic species (ntypx) = 10
     Max number of k-points (npk) =  40000
     Max angular momentum in pseudopotentials (lmaxx) =  4
     file Ni.pbe-nd-rrkjus.upf: wavefunction(s)  4S renormalized

     R & G space division:  proc/nbgrp/npool/nimage =       2
     Subspace diagonalization in iterative solution of the eigenvalue problem:
     a serial algorithm will be used


     Parallelization info
     --------------------
     sticks:   dense  smooth     PW     G-vecs:    dense   smooth      PW
     Min        2658    1767    507                75267    40916    6252
     Max        2659    1768    508                75268    40917    6253
     Sum        5317    3535   1015               150535    81833   12505

     Using Slab Decomposition



     bravais-lattice index     =            4
     lattice parameter (alat)  =      14.6159  a.u.
     unit-cell volume          =    1304.9057 (a.u.)^3
     number of atoms/cell      =            9
     number of atomic types    =            3
     number of electrons       =        94.00
     number of Kohn-Sham states=           56
     kinetic-energy cutoff     =      60.0000  Ry
     charge density cutoff     =     360.0000  Ry
     scf convergence threshold =      1.0E-06
     mixing beta               =       0.4000
     number of iterations used =            8  plain     mixing
     Exchange-correlation= SLA  PW   PBE  PBE
                           (   1   4   3   4   0   0   0)

     celldm(1)=  14.615898  celldm(2)=   0.000000  celldm(3)=   0.482583
     celldm(4)=   0.000000  celldm(5)=   0.000000  celldm(6)=   0.000000

     crystal axes: (cart. coord. in units of alat)
               a(1) = (   1.000000   0.000000   0.000000 )  
               a(2) = (  -0.500000   0.866025   0.000000 )  
               a(3) = (   0.000000   0.000000   0.482583 )  

     reciprocal axes: (cart. coord. in units 2 pi/alat)
               b(1) = (  1.000000  0.577350 -0.000000 )  
               b(2) = (  0.000000  1.154701  0.000000 )  
               b(3) = (  0.000000 -0.000000  2.072182 )  


     PseudoPot. # 1 for Zr read from file:
     /home/tauqeer/Zr6MTe2/sudopoten/Zr.pbe-nsp-van.upf
     MD5 check sum: f06f7249673c13908de31cca45056a07
     Pseudo is Ultrasoft + core correction, Zval = 12.0
     Generated by new atomic code, or converted to UPF format
     Using radial grid of  887 points,  6 beta functions with: 
                l(1) =   0
                l(2) =   0
                l(3) =   1
                l(4) =   1
                l(5) =   2
                l(6) =   2
     Q(r) pseudized with  6 coefficients,  rinner =    1.200   1.200   1.200
                                                       1.200   1.200

     PseudoPot. # 2 for Ni read from file:
     /home/tauqeer/Zr6MTe2/sudopoten/Ni.pbe-nd-rrkjus.upf
     MD5 check sum: d71bc9c4c8adef96ad6fe9664ede368e
     Pseudo is Ultrasoft + core correction, Zval = 10.0
     Generated by new atomic code, or converted to UPF format
     Using radial grid of 1203 points,  6 beta functions with: 
                l(1) =   0
                l(2) =   0
                l(3) =   1
                l(4) =   1
                l(5) =   2
                l(6) =   2
     Q(r) pseudized with 0 coefficients 


     PseudoPot. # 3 for Te read from file:
     /home/tauqeer/Zr6MTe2/sudopoten/Te.pbe-rrkj.upf
     MD5 check sum: 22c11190d1be98e87836461ecdaaa002
     Pseudo is Norm-conserving, Zval =  6.0
     Generated by new atomic code, or converted to UPF format
     Using radial grid of 1191 points,  3 beta functions with: 
                l(1) =   0
                l(2) =   0
                l(3) =   2

     atomic species   valence    mass     pseudopotential
     Zr               12.00    91.22400     Zr( 1.00)
     Ni               10.00    58.69340     Ni( 1.00)
     Te                6.00   127.60000     Te( 1.00)

      2 Sym. Ops. (no inversion) found



   Cartesian axes

     site n.     atom                  positions (alat units)
         1        Zr     tau(   1) = (   0.2373720   0.0000000   0.0000000  )
         2        Zr     tau(   2) = (  -0.1186860   0.2055702   0.0000000  )
         3        Zr     tau(   3) = (   0.3800213   0.6582163   0.0000000  )
         4        Zr     tau(   4) = (   0.5908246   0.0000000   0.2399984  )
         5        Zr     tau(   5) = (  -0.2954123   0.5116692   0.2399984  )
         6        Zr     tau(   6) = (   0.2032950   0.3521173   0.2399984  )
         7        Ni     tau(   7) = (   0.0000000   0.0000000   0.2399984  )
         8        Te     tau(   8) = (  -0.0000000   0.5758576   0.0000000  )
         9        Te     tau(   9) = (   0.4987073   0.2879289   0.0000000  )

     number of k points=    89  Gaussian smearing, width (Ry)=  0.0100
                       cart. coord. in units 2pi/alat
        k(    1) = (   0.0000000   0.0000000   0.0000000), wk =   0.0069444
        k(    2) = (   0.0000000   0.0000000   0.2590228), wk =   0.0138889
        k(    3) = (   0.0000000   0.0000000   0.5180456), wk =   0.0138889
        k(    4) = (   0.0000000   0.0000000   0.7770684), wk =   0.0138889
        k(    5) = (   0.0000000   0.0000000  -1.0360912), wk =   0.0069444
        k(    6) = (   0.0000000   0.1924501   0.0000000), wk =   0.0277778
        k(    7) = (   0.0000000   0.1924501   0.2590228), wk =   0.0277778
        k(    8) = (   0.0000000   0.1924501   0.5180456), wk =   0.0277778
        k(    9) = (   0.0000000   0.1924501   0.7770684), wk =   0.0277778
        k(   10) = (   0.0000000   0.1924501  -1.0360912), wk =   0.0277778
        k(   11) = (   0.0000000   0.3849002   0.0000000), wk =   0.0277778
        k(   12) = (   0.0000000   0.3849002   0.2590228), wk =   0.0277778
        k(   13) = (   0.0000000   0.3849002   0.5180456), wk =   0.0277778
        k(   14) = (   0.0000000   0.3849002   0.7770684), wk =   0.0277778
        k(   15) = (   0.0000000   0.3849002  -1.0360912), wk =   0.0277778
        k(   16) = (   0.0000000  -0.5773503   0.0000000), wk =   0.0138889
        k(   17) = (   0.0000000  -0.5773503   0.2590228), wk =   0.0277778
        k(   18) = (   0.0000000  -0.5773503   0.5180456), wk =   0.0277778
        k(   19) = (   0.0000000  -0.5773503   0.7770684), wk =   0.0277778
        k(   20) = (   0.0000000  -0.5773503  -1.0360912), wk =   0.0138889
        k(   21) = (   0.1666667   0.2886751   0.0000000), wk =   0.0138889
        k(   22) = (   0.1666667   0.2886751   0.2590228), wk =   0.0138889
        k(   23) = (   0.1666667   0.2886751   0.5180456), wk =   0.0138889
        k(   24) = (   0.1666667   0.2886751   0.7770684), wk =   0.0138889
        k(   25) = (   0.1666667   0.2886751  -1.0360912), wk =   0.0138889
        k(   26) = (   0.1666667   0.4811252   0.0000000), wk =   0.0277778
        k(   27) = (   0.1666667   0.4811252   0.2590228), wk =   0.0277778
        k(   28) = (   0.1666667   0.4811252   0.5180456), wk =   0.0277778
        k(   29) = (   0.1666667   0.4811252   0.7770684), wk =   0.0277778
        k(   30) = (   0.1666667   0.4811252  -1.0360912), wk =   0.0277778
        k(   31) = (   0.3333333   0.5773503   0.0000000), wk =   0.0138889
        k(   32) = (   0.3333333   0.5773503   0.2590228), wk =   0.0138889
        k(   33) = (   0.3333333   0.5773503   0.5180456), wk =   0.0138889
        k(   34) = (   0.3333333   0.5773503   0.7770684), wk =   0.0138889
        k(   35) = (   0.3333333   0.5773503  -1.0360912), wk =   0.0138889
        k(   36) = (  -0.1666667   0.0962250   0.0000000), wk =   0.0138889
        k(   37) = (   0.0000000   0.1924501  -0.2590228), wk =   0.0277778
        k(   38) = (  -0.1666667   0.0962250   0.2590228), wk =   0.0277778
        k(   39) = (   0.0000000   0.1924501  -0.5180456), wk =   0.0277778
        k(   40) = (  -0.1666667   0.0962250   0.5180456), wk =   0.0277778
        k(   41) = (   0.0000000   0.1924501  -0.7770684), wk =   0.0277778
        k(   42) = (  -0.1666667   0.0962250   0.7770684), wk =   0.0277778
        k(   43) = (  -0.1666667   0.0962250  -1.0360912), wk =   0.0138889
        k(   44) = (  -0.3333333   0.1924501   0.0000000), wk =   0.0138889
        k(   45) = (   0.0000000   0.3849002  -0.2590228), wk =   0.0277778
        k(   46) = (  -0.3333333   0.1924501   0.2590228), wk =   0.0277778
        k(   47) = (   0.0000000   0.3849002  -0.5180456), wk =   0.0277778
        k(   48) = (  -0.3333333   0.1924501   0.5180456), wk =   0.0277778
        k(   49) = (   0.0000000   0.3849002  -0.7770684), wk =   0.0277778
        k(   50) = (  -0.3333333   0.1924501   0.7770684), wk =   0.0277778
        k(   51) = (  -0.3333333   0.1924501  -1.0360912), wk =   0.0138889
        k(   52) = (   0.5000000  -0.2886751   0.0000000), wk =   0.0069444
        k(   53) = (   0.5000000  -0.2886751   0.2590228), wk =   0.0138889
        k(   54) = (   0.5000000  -0.2886751   0.5180456), wk =   0.0138889
        k(   55) = (   0.5000000  -0.2886751   0.7770684), wk =   0.0138889
        k(   56) = (   0.5000000  -0.2886751  -1.0360912), wk =   0.0069444
        k(   57) = (  -0.1666667   0.2886751   0.0000000), wk =   0.0277778
        k(   58) = (  -0.1666667   0.2886751  -0.2590228), wk =   0.0277778
        k(   59) = (   0.1666667  -0.2886751  -0.2590228), wk =   0.0277778
        k(   60) = (   0.1666667   0.2886751  -0.2590228), wk =   0.0138889
        k(   61) = (  -0.1666667   0.2886751  -0.5180456), wk =   0.0277778
        k(   62) = (   0.1666667  -0.2886751  -0.5180456), wk =   0.0277778
        k(   63) = (   0.1666667   0.2886751  -0.5180456), wk =   0.0138889
        k(   64) = (  -0.1666667   0.2886751  -0.7770684), wk =   0.0277778
        k(   65) = (   0.1666667  -0.2886751  -0.7770684), wk =   0.0277778
        k(   66) = (   0.1666667   0.2886751  -0.7770684), wk =   0.0138889
        k(   67) = (  -0.1666667   0.2886751   1.0360912), wk =   0.0277778
        k(   68) = (  -0.1666667   0.4811252   0.0000000), wk =   0.0277778
        k(   69) = (  -0.3333333   0.3849002   0.0000000), wk =   0.0277778
        k(   70) = (  -0.1666667   0.4811252  -0.2590228), wk =   0.0277778
        k(   71) = (   0.1666667  -0.4811252  -0.2590228), wk =   0.0277778
        k(   72) = (  -0.3333333   0.3849002   0.2590228), wk =   0.0277778
        k(   73) = (   0.3333333  -0.3849002   0.2590228), wk =   0.0277778
        k(   74) = (   0.3333333   0.3849002  -0.2590228), wk =   0.0277778
        k(   75) = (  -0.1666667   0.4811252  -0.5180456), wk =   0.0277778
        k(   76) = (   0.1666667  -0.4811252  -0.5180456), wk =   0.0277778
        k(   77) = (  -0.3333333   0.3849002   0.5180456), wk =   0.0277778
        k(   78) = (   0.3333333  -0.3849002   0.5180456), wk =   0.0277778
        k(   79) = (   0.3333333   0.3849002  -0.5180456), wk =   0.0277778
        k(   80) = (  -0.1666667   0.4811252  -0.7770684), wk =   0.0277778
        k(   81) = (   0.1666667  -0.4811252  -0.7770684), wk =   0.0277778
        k(   82) = (  -0.3333333   0.3849002   0.7770684), wk =   0.0277778
        k(   83) = (   0.3333333  -0.3849002   0.7770684), wk =   0.0277778
        k(   84) = (   0.3333333   0.3849002  -0.7770684), wk =   0.0277778
        k(   85) = (  -0.1666667   0.4811252   1.0360912), wk =   0.0277778
        k(   86) = (  -0.3333333   0.3849002  -1.0360912), wk =   0.0277778
        k(   87) = (   0.3333333  -0.5773503  -0.2590228), wk =   0.0138889
        k(   88) = (   0.3333333  -0.5773503  -0.5180456), wk =   0.0138889
        k(   89) = (   0.3333333  -0.5773503  -0.7770684), wk =   0.0138889

     Dense  grid:   150535 G-vectors     FFT dimensions: (  90,  90,  45)

     Smooth grid:    81833 G-vectors     FFT dimensions: (  75,  75,  36)

     Estimated max dynamical RAM per process >     678.19 MB

     Estimated total dynamical RAM >       1.32 GB

     Check: negative core charge=   -0.000002

     Initial potential from superposition of free atoms

     starting charge      93.5264, renormalised to      94.0000

     negative rho (up, down):  3.649E-01 0.000E+00
     Starting wfcs are  102 randomized atomic wfcs

     total cpu time spent up to now is      169.1 secs

     Self-consistent Calculation

     iteration #  1     ecut=    60.00 Ry     beta= 0.40
     Davidson diagonalization with overlap
     ethr =  1.00E-02,  avg # of iterations =  2.0

     negative rho (up, down):  3.621E-01 0.000E+00

     total cpu time spent up to now is      395.6 secs

     total energy              =    -697.84155472 Ry
     estimated scf accuracy    <      27.57353287 Ry

     iteration #  2     ecut=    60.00 Ry     beta= 0.40
     Davidson diagonalization with overlap
     ethr =  1.00E-02,  avg # of iterations =  6.0

     negative rho (up, down):  3.630E-01 0.000E+00

     total cpu time spent up to now is      814.7 secs

     total energy              =    -706.39086304 Ry
     estimated scf accuracy    <     112.23188553 Ry

     iteration #  3     ecut=    60.00 Ry     beta= 0.40
     Davidson diagonalization with overlap
     ethr =  1.00E-02,  avg # of iterations =  3.8

     negative rho (up, down):  3.647E-01 0.000E+00

     total cpu time spent up to now is     1126.4 secs

     total energy              =    -714.75112368 Ry
     estimated scf accuracy    <       7.91884362 Ry

     iteration #  4     ecut=    60.00 Ry     beta= 0.40
     Davidson diagonalization with overlap
     ethr =  8.42E-03,  avg # of iterations =  1.1

     negative rho (up, down):  3.677E-01 0.000E+00

     total cpu time spent up to now is     1332.0 secs

     total energy              =    -713.89373676 Ry
     estimated scf accuracy    <       4.96670765 Ry

     iteration #  5     ecut=    60.00 Ry     beta= 0.40
     Davidson diagonalization with overlap
     ethr =  5.28E-03,  avg # of iterations =  1.8

     negative rho (up, down):  3.704E-01 0.000E+00

     total cpu time spent up to now is     1519.1 secs

     total energy              =    -713.68965156 Ry
     estimated scf accuracy    <       1.58087345 Ry

     iteration #  6     ecut=    60.00 Ry     beta= 0.40
     Davidson diagonalization with overlap
     ethr =  1.68E-03,  avg # of iterations =  2.3

     negative rho (up, down):  3.711E-01 0.000E+00

     total cpu time spent up to now is     1718.1 secs

     total energy              =    -713.87442095 Ry
     estimated scf accuracy    <       0.08373325 Ry

     iteration #  7     ecut=    60.00 Ry     beta= 0.40
     Davidson diagonalization with overlap
     ethr =  8.91E-05,  avg # of iterations = 10.4

     negative rho (up, down):  3.710E-01 0.000E+00

     total cpu time spent up to now is     2016.7 secs

     total energy              =    -713.85855958 Ry
     estimated scf accuracy    <       0.18156625 Ry

     iteration #  8     ecut=    60.00 Ry     beta= 0.40
     Davidson diagonalization with overlap
     ethr =  8.91E-05,  avg # of iterations =  2.5

     negative rho (up, down):  3.708E-01 0.000E+00

     total cpu time spent up to now is     2252.4 secs

     total energy              =    -713.88695799 Ry
     estimated scf accuracy    <       0.02208336 Ry

     iteration #  9     ecut=    60.00 Ry     beta= 0.40
     Davidson diagonalization with overlap
     ethr =  2.35E-05,  avg # of iterations =  5.1

     negative rho (up, down):  3.710E-01 0.000E+00

     total cpu time spent up to now is     2528.2 secs

     total energy              =    -713.87769673 Ry
     estimated scf accuracy    <       0.24347709 Ry

     iteration # 10     ecut=    60.00 Ry     beta= 0.40
     Davidson diagonalization with overlap
     ethr =  2.35E-05,  avg # of iterations =  2.3

     negative rho (up, down):  3.715E-01 0.000E+00

     total cpu time spent up to now is     2763.8 secs

     total energy              =    -713.86901703 Ry
     estimated scf accuracy    <       0.06723857 Ry

     iteration # 11     ecut=    60.00 Ry     beta= 0.40
     Davidson diagonalization with overlap
     ethr =  2.35E-05,  avg # of iterations =  3.8

     negative rho (up, down):  3.714E-01 0.000E+00

     total cpu time spent up to now is     3020.2 secs

     total energy              =    -713.87661104 Ry
     estimated scf accuracy    <       0.01849594 Ry

     iteration # 12     ecut=    60.00 Ry     beta= 0.40
     Davidson diagonalization with overlap
     ethr =  1.97E-05,  avg # of iterations =  2.0

     negative rho (up, down):  3.714E-01 0.000E+00

     total cpu time spent up to now is     3237.7 secs

     total energy              =    -713.87804415 Ry
     estimated scf accuracy    <       0.00003958 Ry

     iteration # 13     ecut=    60.00 Ry     beta= 0.40
     Davidson diagonalization with overlap
     c_bands:  1 eigenvalues not converged
     c_bands:  1 eigenvalues not converged
     c_bands:  1 eigenvalues not converged
     ethr =  4.21E-08,  avg # of iterations =  8.8

     negative rho (up, down):  3.714E-01 0.000E+00

     total cpu time spent up to now is     3575.8 secs

     total energy              =    -713.87784841 Ry
     estimated scf accuracy    <       0.00274068 Ry

     iteration # 14     ecut=    60.00 Ry     beta= 0.40
     Davidson diagonalization with overlap
     ethr =  4.21E-08,  avg # of iterations =  5.7

     negative rho (up, down):  3.714E-01 0.000E+00

     total cpu time spent up to now is     3895.8 secs

     total energy              =    -713.87806689 Ry
     estimated scf accuracy    <       0.00003804 Ry

     iteration # 15     ecut=    60.00 Ry     beta= 0.40
     Davidson diagonalization with overlap
     ethr =  4.05E-08,  avg # of iterations =  2.0

     negative rho (up, down):  3.714E-01 0.000E+00

     total cpu time spent up to now is     4112.6 secs

     End of self-consistent calculation

          k = 0.0000 0.0000 0.0000 ( 10193 PWs)   bands (ev):

   -35.2049 -35.1975 -35.1854 -34.8440 -34.8152 -34.8055 -13.5120 -13.3963
   -13.3904 -13.3013 -13.2471 -13.2177 -13.2143 -13.2028 -13.1950 -12.9835
   -12.9824 -12.9511 -12.8093 -12.7381 -12.7254 -12.7247 -12.7198 -12.7157
     0.6465   1.2973   7.9893   8.0031   9.1901   9.3136   9.3352  10.5594
    10.5913  11.3373  11.3456  11.3934  11.3956  11.4445  11.4486  11.6558
    11.8322  13.2903  13.2948  14.0418  14.0549  14.0726  14.1124  14.1176
    14.2105  14.7218  14.7434  15.0941  15.0969  15.1777  15.2713  15.7696

          k = 0.0000 0.0000 0.2590 ( 10199 PWs)   bands (ev):

   -35.2032 -35.1965 -35.1842 -34.8438 -34.8143 -34.8046 -13.5013 -13.3952
   -13.3893 -13.3106 -13.2557 -13.2520 -13.2386 -13.1964 -13.1912 -12.9663
   -12.9651 -12.9598 -12.8148 -12.7638 -12.7527 -12.7512 -12.7071 -12.7025
     0.7699   1.3293   8.1465   8.1592   9.2688   9.2871   9.3666  10.1949
    10.3215  10.9782  11.3019  11.3031  11.3603  11.3628  11.7384  11.7416
    12.1996  13.1637  13.1736  13.6523  13.6598  13.9163  14.1341  14.1387
    14.1494  14.7002  14.7006  15.0457  15.0569  15.5072  15.5223  15.8487

          k = 0.0000 0.0000 0.5180 ( 10223 PWs)   bands (ev):

   -35.1989 -35.1939 -35.1812 -34.8432 -34.8121 -34.8023 -13.4745 -13.3940
   -13.3883 -13.3428 -13.3319 -13.3287 -13.2065 -13.1814 -13.1769 -12.9942
   -12.9396 -12.9349 -12.8286 -12.8089 -12.7912 -12.7807 -12.7112 -12.7066
     1.0980   1.4103   8.5355   8.5446   8.9625   9.1755   9.1865   9.4525
     9.8858  11.1183  11.2891  11.2935  11.3741  11.3778  12.2869  12.2934
    12.3457  12.9851  12.9935  13.1677  13.1785  13.3037  13.8143  13.8193
    14.2078  14.6483  14.8048  14.8055  14.9629  15.8581  15.8587  16.2838

          k = 0.0000 0.0000 0.7771 ( 10242 PWs)   bands (ev):

   -35.1947 -35.1913 -35.1781 -34.8427 -34.8099 -34.8000 -13.4463 -13.4032
   -13.4024 -13.3887 -13.3839 -13.3766 -13.1670 -13.1636 -13.1550 -13.0417
   -12.9268 -12.9190 -12.8622 -12.8437 -12.8004 -12.7884 -12.7306 -12.7256
     1.4864   1.4974   7.8245   8.7710   8.7732   8.8287   9.3217   9.3296
    10.4725  11.2598  11.2680  11.3336  11.3444  11.4445  12.2529  12.4842
    12.4886  12.6563  12.9049  12.9182  13.3355  13.3355  13.6350  13.6371
    14.2204  14.3175  14.4082  14.4173  15.5403  16.0791  16.0808  16.4556

          k = 0.0000 0.0000-1.0361 ( 10170 PWs)   bands (ev):

   -35.1929 -35.1902 -35.1768 -34.8425 -34.8090 -34.7991 -13.4341 -13.4268
   -13.4250 -13.3929 -13.3912 -13.3869 -13.1614 -13.1585 -13.1069 -13.0879
   -12.9235 -12.9143 -12.8847 -12.8503 -12.7967 -12.7843 -12.7445 -12.7393
     1.5355   1.6737   7.3725   8.5927   8.7592   8.7593   9.5515   9.5574
    10.7758  11.1380  11.1482  11.3640  11.3763  11.6744  12.1672  12.3213
    12.3335  12.3362  13.1177  13.1434  13.3292  13.3467  13.8921  13.8998
    14.0179  14.0325  14.0944  14.1950  16.1294  16.1316  16.2997  16.4134

          k = 0.0000 0.1925 0.0000 ( 10213 PWs)   bands (ev):

   -35.2043 -35.1979 -35.1855 -34.8450 -34.8146 -34.8052 -13.5043 -13.4049
   -13.3968 -13.3046 -13.2435 -13.2196 -13.2048 -13.1968 -13.1919 -13.0392
   -12.9713 -12.8952 -12.8121 -12.7441 -12.7353 -12.7255 -12.7194 -12.7178
     0.6866   1.2577   7.9240   8.0229   8.8356   9.3334   9.7020  10.6111
    10.6182  11.2634  11.3010  11.3385  11.3980  11.5581  11.6450  11.6663
    11.9449  12.9782  13.0595  13.8215  14.0463  14.1323  14.2831  14.3246
    14.4194  14.7324  14.9277  14.9869  15.1087  15.1512  15.2647  15.5944

          k = 0.0000 0.1925 0.2590 ( 10224 PWs)   bands (ev):

   -35.2026 -35.1968 -35.1843 -34.8446 -34.8138 -34.8043 -13.4944 -13.4029
   -13.3946 -13.3035 -13.2612 -13.2548 -13.2401 -13.1973 -13.1729 -13.0250
   -12.9569 -12.9017 -12.8171 -12.7777 -12.7534 -12.7393 -12.7153 -12.7060
     0.8053   1.2959   8.0867   8.1651   8.9014   9.2930   9.7678  10.2265
    10.3427  10.9538  11.2824  11.3087  11.3743  11.3841  11.7708  11.8739
    12.3131  12.9816  13.0067  13.6191  13.7113  13.8822  14.0283  14.0931
    14.2316  14.8167  14.9460  15.0419  15.0914  15.4631  15.5170  15.6859

          k = 0.0000 0.1925 0.5180 ( 10234 PWs)   bands (ev):

   -35.1985 -35.1942 -35.1813 -34.8437 -34.8119 -34.8021 -13.4700 -13.3997
   -13.3912 -13.3464 -13.3294 -13.3119 -13.2296 -13.1803 -13.1626 -13.0150
   -12.9379 -12.9172 -12.8298 -12.8179 -12.7817 -12.7728 -12.7162 -12.7112
     1.1198   1.3925   8.4714   8.5189   8.8711   9.1455   9.1879   9.4975
    10.0538  11.1220  11.2878  11.2994  11.3927  11.4015  12.2436  12.3632
    12.4882  12.8230  12.8857  13.2091  13.2694  13.4238  13.6439  13.7079
    14.2098  14.6130  14.9112  15.0068  15.0836  15.7473  15.8187  16.1599

          k = 0.0000 0.1925 0.7771 ( 10237 PWs)   bands (ev):

   -35.1944 -35.1915 -35.1782 -34.8428 -34.8099 -34.8000 -13.4455 -13.4110
   -13.4044 -13.3893 -13.3821 -13.3574 -13.1819 -13.1649 -13.1547 -13.0391
   -12.9325 -12.9261 -12.8569 -12.8431 -12.7909 -12.7818 -12.7343 -12.7295
     1.4897   1.4963   7.8556   8.6668   8.7768   8.8289   9.2570   9.3730
    10.4944  11.3025  11.3191  11.3339  11.3430  11.4540  12.2561  12.4677
    12.5033  12.6152  12.8826  13.0184  13.2764  13.3074  13.5376  13.6306
    14.1057  14.2416  14.7041  14.7856  15.5426  16.0377  16.0604  16.3749

          k = 0.0000 0.1925-1.0361 ( 10220 PWs)   bands (ev):

   -35.1927 -35.1904 -35.1769 -34.8425 -34.8091 -34.7991 -13.4344 -13.4339
   -13.4254 -13.3945 -13.3824 -13.3747 -13.1776 -13.1559 -13.1140 -13.0798
   -12.9334 -12.9248 -12.8742 -12.8491 -12.7864 -12.7769 -12.7482 -12.7434
     1.5417   1.6669   7.4248   8.4874   8.7483   8.8151   9.4948   9.5306
    10.7124  11.2249  11.2377  11.3558  11.3708  11.6677  12.1523  12.3544
    12.3572  12.3869  13.0450  13.1142  13.1924  13.2806  13.6608  13.7604
    14.0871  14.1620  14.5095  14.5246  16.1057  16.2025  16.2316  16.3486

          k = 0.0000 0.3849 0.0000 ( 10227 PWs)   bands (ev):

   -35.2028 -35.1990 -35.1859 -34.8468 -34.8136 -34.8045 -13.4846 -13.4252
   -13.4093 -13.2974 -13.2341 -13.2332 -13.2110 -13.2002 -13.1584 -13.0852
   -12.9362 -12.8514 -12.8175 -12.7694 -12.7521 -12.7280 -12.7217 -12.7132
     0.7891   1.1569   7.7918   7.9473   8.7829   9.3439   9.9217  10.6771
    10.7443  11.2029  11.2235  11.3002  11.4133  11.5731  11.7010  11.9715
    12.2294  12.6625  12.7123  13.6662  14.0358  14.2787  14.3643  14.4865
    14.6441  14.6777  14.7596  14.9856  14.9950  15.1139  15.3141  15.3745

          k = 0.0000 0.3849 0.2590 ( 10255 PWs)   bands (ev):

   -35.2012 -35.1978 -35.1846 -34.8461 -34.8129 -34.8037 -13.4769 -13.4214
   -13.4044 -13.2870 -13.2660 -13.2567 -13.2404 -13.2073 -13.1490 -13.0659
   -12.9338 -12.8646 -12.8216 -12.7894 -12.7525 -12.7344 -12.7293 -12.7140
     0.8951   1.2105   7.9665   8.0560   8.8408   9.3137   9.9944  10.2953
    10.4081  10.8916  11.2710  11.3325  11.3849  11.4025  11.8365  12.1372
    12.4621  12.7062  12.9193  13.3730  13.6949  13.8742  14.0114  14.1476
    14.4224  14.8042  14.8991  15.1456  15.2893  15.3251  15.4044  15.6041

          k = 0.0000 0.3849 0.5180 ( 10233 PWs)   bands (ev):

   -35.1975 -35.1950 -35.1814 -34.8446 -34.8113 -34.8018 -13.4591 -13.4133
   -13.3947 -13.3418 -13.3265 -13.2981 -13.2401 -13.1827 -13.1569 -13.0457
   -12.9378 -12.8973 -12.8317 -12.8083 -12.7743 -12.7603 -12.7325 -12.7204
     1.1738   1.3467   8.2891   8.4258   8.8122   9.1473   9.2928   9.5494
    10.2430  11.1198  11.2855  11.3090  11.4403  11.4514  12.2031  12.4897
    12.5711  12.6343  12.9078  13.1483  13.2928  13.4709  13.5478  13.7527
    14.2705  14.5467  14.9873  15.1569  15.3711  15.5120  15.7420  15.9813

          k = 0.0000 0.3849 0.7771 ( 10233 PWs)   bands (ev):

   -35.1938 -35.1921 -35.1782 -34.8431 -34.8098 -34.7999 -13.4436 -13.4105
   -13.4090 -13.3893 -13.3760 -13.3439 -13.1981 -13.1722 -13.1430 -13.0541
   -12.9429 -12.9361 -12.8422 -12.8337 -12.7814 -12.7664 -12.7482 -12.7348
     1.4926   1.4978   7.9459   8.4077   8.7877   8.9028   9.1535   9.4096
    10.5092  11.3089  11.3284  11.4069  11.4314  11.4786  12.2142  12.4470
    12.5314  12.6758  12.8387  13.0427  13.1800  13.2701  13.3631  13.5942
    14.2636  14.4360  15.0028  15.1448  15.6094  15.8333  16.0049  16.2029

          k = 0.0000 0.3849-1.0361 ( 10240 PWs)   bands (ev):

   -35.1922 -35.1909 -35.1769 -34.8424 -34.8091 -34.7991 -13.4381 -13.4319
   -13.4211 -13.4005 -13.3733 -13.3618 -13.2053 -13.1448 -13.1162 -13.0752
   -12.9682 -12.9337 -12.8479 -12.8466 -12.7759 -12.7637 -12.7566 -12.7483
     1.5590   1.6482   7.5672   8.2481   8.7426   8.9590   9.3565   9.4533
    10.6180  11.3249  11.3711  11.3786  11.4069  11.6550  12.1024  12.4044
    12.4250  12.5446  12.8617  13.0491  13.0873  13.3606  13.3658  13.4154
    14.3263  14.5655  14.9549  14.9958  15.8312  16.0294  16.3602  16.3663

          k = 0.0000-0.5774 0.0000 ( 10246 PWs)   bands (ev):

   -35.2013 -35.2003 -35.1861 -34.8476 -34.8131 -34.8042 -13.4672 -13.4425
   -13.4151 -13.2839 -13.2504 -13.2233 -13.2202 -13.2018 -13.1479 -13.0964
   -12.8941 -12.8671 -12.8199 -12.7758 -12.7554 -12.7359 -12.7199 -12.7118
     0.8713   1.0759   7.7220   7.8751   8.8706   9.3691   9.9206  10.7150
    10.8480  11.1390  11.1919  11.3057  11.4423  11.4998  11.8024  12.0188
    12.4522  12.4610  12.6826  13.6421  14.0362  14.2495  14.3775  14.4033
    14.6784  14.7332  14.8420  14.8730  14.8945  15.0609  15.2205  15.4049

          k = 0.0000-0.5774 0.2590 ( 10242 PWs)   bands (ev):

   -35.1999 -35.1990 -35.1847 -34.8469 -34.8125 -34.8035 -13.4621 -13.4362
   -13.4092 -13.2797 -13.2608 -13.2597 -13.2306 -13.2259 -13.1444 -13.0750
   -12.9127 -12.8684 -12.8234 -12.7790 -12.7619 -12.7386 -12.7285 -12.7189
     0.9667   1.1414   7.8969   7.9777   8.9128   9.3353  10.0047  10.3369
    10.4652  10.8507  11.2711  11.3375  11.3912  11.4147  11.9101  12.1642
    12.5063  12.7477  12.7576  13.4017  13.6672  13.8637  14.0667  14.0829
    14.5934  14.6475  14.9194  15.0439  15.2614  15.2782  15.3845  15.6249

          k = 0.0000-0.5774 0.5180 ( 10254 PWs)   bands (ev):

   -35.1964 -35.1959 -35.1815 -34.8450 -34.8111 -34.8017 -13.4512 -13.4223
   -13.3955 -13.3379 -13.3240 -13.3044 -13.2238 -13.1890 -13.1613 -13.0590
   -12.9383 -12.8923 -12.8324 -12.7844 -12.7771 -12.7537 -12.7501 -12.7248
     1.2161   1.3087   8.1847   8.3828   8.8130   9.1585   9.3671   9.5638
    10.3008  11.1161  11.2885  11.3095  11.4573  11.4870  12.2257  12.4492
    12.4804  12.6457  13.0374  13.0422  13.2489  13.5305  13.5652  13.8657
    14.3064  14.4757  14.9879  15.1082  15.4454  15.6044  15.8544  15.8719

          k = 0.0000-0.5774 0.7771 ( 10242 PWs)   bands (ev):

   -35.1930 -35.1928 -35.1783 -34.8432 -34.8097 -34.7999 -13.4424 -13.4117
   -13.4027 -13.3924 -13.3717 -13.3465 -13.2022 -13.1738 -13.1258 -13.0777
   -12.9468 -12.9395 -12.8416 -12.8133 -12.7795 -12.7689 -12.7510 -12.7379
     1.4916   1.5011   8.0456   8.2327   8.7912   8.9583   9.1048   9.4094
    10.5085  11.2973  11.3286  11.4458  11.4752  11.5058  12.1830  12.4706
    12.5170  12.7478  12.8430  12.9872  13.0606  13.2528  13.3158  13.6641
    14.3189  14.6491  15.1253  15.1730  15.6191  15.8274  16.0205  16.0310

          k = 0.0000-0.5774-1.0361 ( 10244 PWs)   bands (ev):

   -35.1916 -35.1915 -35.1769 -34.8424 -34.8091 -34.7991 -13.4381 -13.4289
   -13.4156 -13.4048 -13.3691 -13.3638 -13.2170 -13.1379 -13.1073 -13.0769
   -12.9921 -12.9363 -12.8454 -12.8281 -12.7784 -12.7726 -12.7503 -12.7464
     1.5731   1.6334   7.6898   8.0809   8.7494   9.0856   9.2425   9.3953
    10.5783  11.3080  11.3743  11.4545  11.4856  11.6457  12.0727  12.4110
    12.5446  12.5798  12.9124  12.9345  13.0172  13.2250  13.2440  13.4814
    14.3894  14.7611  15.2282  15.2469  15.5800  15.9764  16.4141  16.4216

          k = 0.1667 0.2887 0.0000 ( 10246 PWs)   bands (ev):

   -35.2032 -35.1988 -35.1857 -34.8464 -34.8136 -34.8049 -13.4906 -13.4206
   -13.4044 -13.3010 -13.2370 -13.2236 -13.2087 -13.1995 -13.1777 -13.0648
   -12.9539 -12.8555 -12.8163 -12.7635 -12.7509 -12.7241 -12.7195 -12.7165
     0.7586   1.1870   7.7383   8.1211   8.6693   9.3985   9.8695  10.6611
    10.7048  11.2497  11.2561  11.2634  11.4079  11.5981  11.6586  11.9179
    12.1390  12.7071  12.8072  13.7102  14.0308  14.2419  14.3950  14.4191
    14.6023  14.6474  14.8373  14.8919  14.9832  15.1675  15.2857  15.6411

          k = 0.1667 0.2887 0.2590 ( 10247 PWs)   bands (ev):

   -35.2016 -35.1976 -35.1845 -34.8458 -34.8129 -34.8040 -13.4821 -13.4171
   -13.4007 -13.2917 -13.2658 -13.2561 -13.2399 -13.2023 -13.1586 -13.0535
   -12.9440 -12.8682 -12.8205 -12.7903 -12.7483 -12.7363 -12.7287 -12.7105
     0.8684   1.2361   7.9029   8.2423   8.7324   9.3629   9.9498  10.2787
    10.3800  10.9107  11.2922  11.3058  11.3881  11.3917  11.8141  12.0741
    12.4239  12.8259  12.8911  13.4196  13.7483  13.8016  13.9856  14.1283
    14.4364  14.8373  14.9106  15.1513  15.1738  15.3386  15.5906  15.5949

          k = 0.1667 0.2887 0.5180 ( 10243 PWs)   bands (ev):

   -35.1977 -35.1948 -35.1814 -34.8444 -34.8114 -34.8020 -13.4619 -13.4114
   -13.3925 -13.3435 -13.3276 -13.2986 -13.2409 -13.1814 -13.1567 -13.0405
   -12.9351 -12.9025 -12.8310 -12.8144 -12.7711 -12.7669 -12.7256 -12.7196
     1.1578   1.3606   8.3023   8.5162   8.7570   9.2198   9.2270   9.5374
    10.1946  11.1206  11.2873  11.3041  11.4280  11.4384  12.2030  12.4589
    12.5457  12.7746  12.8253  13.2071  13.3248  13.3980  13.5387  13.7089
    14.2473  14.6264  14.9842  15.0786  15.3167  15.5991  15.7840  16.0039

          k = 0.1667 0.2887 0.7771 ( 10237 PWs)   bands (ev):

   -35.1938 -35.1920 -35.1782 -34.8430 -34.8098 -34.7999 -13.4427 -13.4172
   -13.3995 -13.3949 -13.3760 -13.3457 -13.1971 -13.1588 -13.1574 -13.0461
   -12.9404 -12.9366 -12.8422 -12.8413 -12.7761 -12.7759 -12.7408 -12.7367
     1.4944   1.4950   7.9164   8.5087   8.6958   8.9350   9.1888   9.4007
    10.5038  11.3209  11.3244  11.3779  11.4133  11.4652  12.1889  12.5159
    12.5167  12.6486  12.8772  13.0410  13.1554  13.3155  13.4137  13.5450
    14.2442  14.3590  14.9480  15.0660  15.5974  15.9398  15.9841  16.1530

          k = 0.1667 0.2887-1.0361 ( 10248 PWs)   bands (ev):

   -35.1923 -35.1909 -35.1769 -34.8425 -34.8091 -34.7991 -13.4349 -13.4321
   -13.4254 -13.4005 -13.3746 -13.3637 -13.1997 -13.1463 -13.1168 -13.0760
   -12.9471 -12.9451 -12.8556 -12.8471 -12.7707 -12.7678 -12.7563 -12.7494
     1.5541   1.6535   7.5241   8.3149   8.7441   8.9162   9.3880   9.4811
    10.6373  11.3423  11.3436  11.3622  11.3629  11.6598  12.0663  12.4045
    12.4857  12.4945  12.9432  13.0340  13.0563  13.3212  13.4231  13.5150
    14.3374  14.4035  14.8477  14.8721  16.0530  16.0552  16.2493  16.2993

          k = 0.1667 0.4811 0.0000 ( 10285 PWs)   bands (ev):

   -35.2015 -35.2001 -35.1861 -34.8476 -34.8131 -34.8042 -13.4699 -13.4406
   -13.4135 -13.2819 -13.2395 -13.2264 -13.2158 -13.2033 -13.1897 -13.0544
   -12.9189 -12.8589 -12.8203 -12.7738 -12.7557 -12.7346 -12.7177 -12.7137
     0.8685   1.0792   7.5590   8.1587   8.6835   9.4751   9.8779  10.7262
    10.8495  11.1350  11.2237  11.2815  11.4325  11.5120  11.7700  12.0173
    12.3699  12.5540  12.6833  13.7058  14.0742  14.1950  14.4098  14.4371
    14.4444  14.5733  14.6599  14.8141  15.0767  15.1513  15.3434  15.6385

          k = 0.1667 0.4811 0.2590 ( 10255 PWs)   bands (ev):

   -35.2000 -35.1988 -35.1847 -34.8469 -34.8125 -34.8035 -13.4637 -13.4357
   -13.4076 -13.2797 -13.2614 -13.2585 -13.2343 -13.2147 -13.1659 -13.0562
   -12.9201 -12.8688 -12.8238 -12.7808 -12.7536 -12.7425 -12.7296 -12.7182
     0.9640   1.1445   7.7253   8.2579   8.7348   9.4426   9.9794  10.3434
    10.4379  10.8666  11.2917  11.3243  11.3904  11.4039  11.8926  12.1524
    12.4209  12.7843  12.8863  13.3833  13.6864  13.7728  13.9225  14.1502
    14.6177  14.7227  14.9049  15.0668  15.1598  15.3475  15.5635  15.7544

          k = 0.1667 0.4811 0.5180 ( 10236 PWs)   bands (ev):

   -35.1965 -35.1958 -35.1815 -34.8450 -34.8111 -34.8017 -13.4500 -13.4253
   -13.3934 -13.3364 -13.3257 -13.3071 -13.2198 -13.1850 -13.1632 -13.0659
   -12.9304 -12.8980 -12.8324 -12.7891 -12.7681 -12.7577 -12.7439 -12.7302
     1.2136   1.3113   8.1358   8.4738   8.7100   9.2706   9.3766   9.5389
    10.2613  11.1204  11.2854  11.3029  11.4675  11.4818  12.2211  12.3524
    12.4666  12.8153  12.9904  13.1677  13.2656  13.4173  13.4311  13.8706
    14.3337  14.5651  15.0305  15.0970  15.4449  15.5511  15.7584  15.9398

          k = 0.1667 0.4811 0.7771 ( 10235 PWs)   bands (ev):

   -35.1930 -35.1927 -35.1783 -34.8432 -34.8097 -34.7999 -13.4384 -13.4183
   -13.3986 -13.3905 -13.3730 -13.3514 -13.2055 -13.1591 -13.1360 -13.0728
   -12.9484 -12.9441 -12.8414 -12.8138 -12.7731 -12.7660 -12.7528 -12.7423
     1.4937   1.4990   8.0307   8.2870   8.6515   9.0526   9.1444   9.3887
    10.4955  11.3057  11.3223  11.4369  11.4792  11.4964  12.0957  12.5500
    12.6159  12.7230  12.8809  12.9737  13.0709  13.2220  13.2731  13.6150
    14.3733  14.5651  15.1512  15.2637  15.6373  15.8457  15.9045  15.9890

          k = 0.1667 0.4811-1.0361 ( 10232 PWs)   bands (ev):

   -35.1916 -35.1915 -35.1769 -34.8424 -34.8091 -34.7991 -13.4315 -13.4263
   -13.4195 -13.4081 -13.3689 -13.3684 -13.2191 -13.1309 -13.1032 -13.0817
   -12.9812 -12.9523 -12.8454 -12.8282 -12.7760 -12.7646 -12.7523 -12.7512
     1.5755   1.6308   7.6898   8.0814   8.7632   9.0725   9.2476   9.3864
    10.5731  11.3255  11.3617  11.4509  11.4784  11.6549  11.9618  12.5273
    12.6416  12.6622  12.8247  12.9677  12.9892  13.1984  13.2486  13.3879
    14.4634  14.6532  15.2224  15.2564  15.7325  15.9885  16.3214  16.3450

          k = 0.3333 0.5774 0.0000 ( 10290 PWs)   bands (ev):

   -35.2012 -35.2000 -35.1863 -34.8479 -34.8135 -34.8036 -13.4565 -13.4528
   -13.4168 -13.2475 -13.2414 -13.2406 -13.2204 -13.2174 -13.2077 -13.0180
   -12.9017 -12.8966 -12.8216 -12.7566 -12.7547 -12.7480 -12.7192 -12.7113
     0.9721   0.9767   7.4448   8.4540   8.4559   9.5716   9.8026  10.7632
    10.9929  11.0023  11.2528  11.2608  11.4578  11.4617  11.8809  11.8900
    12.3974  12.6396  12.6511  13.8194  14.1785  14.1936  14.2146  14.2924
    14.3454  14.3494  14.7768  14.7802  14.9117  15.4810  15.5208  15.7184

          k = 0.3333 0.5774 0.2590 ( 10242 PWs)   bands (ev):

   -35.1999 -35.1987 -35.1850 -34.8471 -34.8128 -34.8030 -13.4514 -13.4475
   -13.4098 -13.2760 -13.2606 -13.2576 -13.2190 -13.2168 -13.1951 -13.0398
   -12.9008 -12.8949 -12.8248 -12.7617 -12.7547 -12.7537 -12.7290 -12.7219
     1.0530   1.0571   7.6150   8.5187   8.5205   9.5365   9.9323  10.4058
    10.4086  10.8678  11.3112  11.3118  11.3978  11.3982  12.0109  12.0176
    12.3552  12.9033  12.9136  13.3984  13.7295  13.7417  13.7488  14.1696
    14.6333  14.6350  14.9659  14.9788  15.3759  15.4570  15.6130  15.6281

          k = 0.3333 0.5774 0.5180 ( 10245 PWs)   bands (ev):

   -35.1967 -35.1955 -35.1817 -34.8451 -34.8113 -34.8014 -13.4403 -13.4360
   -13.3924 -13.3265 -13.3265 -13.3215 -13.1869 -13.1859 -13.1832 -13.0799
   -12.9156 -12.9099 -12.8328 -12.7688 -12.7613 -12.7595 -12.7478 -12.7468
     1.2624   1.2649   8.0579   8.5726   8.5750   9.4408   9.4408   9.4515
    10.2303  11.1283  11.2834  11.2903  11.4917  11.4942  12.2178  12.3412
    12.3422  12.9383  13.1577  13.2196  13.2269  13.2859  13.2959  13.9355
    14.4697  14.4706  15.0665  15.0726  15.6355  15.6376  15.7041  15.7138

          k = 0.3333 0.5774 0.7771 ( 10233 PWs)   bands (ev):

   -35.1934 -35.1923 -35.1784 -34.8432 -34.8097 -34.7998 -13.4303 -13.4263
   -13.3885 -13.3869 -13.3741 -13.3662 -13.2100 -13.1375 -13.1331 -13.0908
   -12.9529 -12.9489 -12.8412 -12.7915 -12.7830 -12.7604 -12.7521 -12.7515
     1.4966   1.4971   8.1566   8.1591   8.5612   9.1556   9.1634   9.3450
    10.4791  11.3056  11.3173  11.4335  11.5034  11.5127  12.0245  12.6580
    12.6649  12.7981  12.8196  13.0160  13.0170  13.1812  13.1920  13.5844
    14.5096  14.5098  15.3304  15.3326  15.7230  15.7663  15.7674  15.9167

          k = 0.3333 0.5774-1.0361 ( 10248 PWs)   bands (ev):

   -35.1921 -35.1909 -35.1770 -34.8424 -34.8091 -34.7991 -13.4211 -13.4205
   -13.4181 -13.4146 -13.3827 -13.3666 -13.2269 -13.1073 -13.1015 -13.0881
   -12.9790 -12.9761 -12.8449 -12.8051 -12.7958 -12.7574 -12.7530 -12.7502
     1.6026   1.6031   7.8721   7.8773   8.7932   9.1732   9.1806   9.3016
    10.5495  11.3353  11.3493  11.4888  11.5005  11.6632  11.8746  12.6793
    12.7523  12.7654  12.9143  12.9178  12.9188  13.1061  13.1208  13.2714
    14.5964  14.5992  15.4089  15.4108  15.7735  16.0585  16.2426  16.2607

          k =-0.1667 0.0962 0.0000 ( 10213 PWs)   bands (ev):

   -35.2044 -35.1978 -35.1856 -34.8448 -34.8151 -34.8048 -13.5044 -13.4023
   -13.3996 -13.3043 -13.2435 -13.2173 -13.2044 -13.1972 -13.1951 -13.0372
   -12.9719 -12.8970 -12.8120 -12.7414 -12.7322 -12.7302 -12.7220 -12.7154
     0.6870   1.2572   7.9332   8.0145   8.8418   9.3187   9.7082  10.6121
    10.6176  11.2687  11.2959  11.3403  11.3961  11.5626  11.6440  11.6638
    11.9443  12.9800  13.0576  13.8220  14.0388  14.1300  14.2865  14.3276
    14.4249  14.7454  14.9158  14.9873  15.0997  15.1573  15.2631  15.5937

          k = 0.0000 0.1925-0.2590 ( 10224 PWs)   bands (ev):

   -35.2026 -35.1968 -35.1843 -34.8446 -34.8138 -34.8043 -13.4944 -13.4029
   -13.3946 -13.3035 -13.2613 -13.2548 -13.2401 -13.1973 -13.1729 -13.0250
   -12.9569 -12.9017 -12.8171 -12.7775 -12.7535 -12.7397 -12.7149 -12.7061
     0.8053   1.2959   8.0866   8.1651   8.9015   9.2931   9.7678  10.2266
    10.3426  10.9536  11.2823  11.3085  11.3743  11.3847  11.7708  11.8739
    12.3131  12.9841  13.0043  13.6189  13.7113  13.8822  14.0282  14.0930
    14.2319  14.8166  14.9475  15.0405  15.0917  15.4627  15.5172  15.6857

          k =-0.1667 0.0962 0.2590 ( 10224 PWs)   bands (ev):

   -35.2027 -35.1967 -35.1844 -34.8445 -34.8142 -34.8040 -13.4945 -13.4000
   -13.3975 -13.3033 -13.2616 -13.2515 -13.2443 -13.1940 -13.1752 -13.0240
   -12.9562 -12.9040 -12.8170 -12.7731 -12.7602 -12.7364 -12.7113 -12.7097
     0.8056   1.2955   8.0951   8.1575   8.9080   9.2803   9.7715  10.2273
    10.3428  10.9533  11.2865  11.3069  11.3761  11.3816  11.7722  11.8718
    12.3140  12.9806  13.0078  13.6129  13.7100  13.8801  14.0289  14.0979
    14.2365  14.8141  14.9531  15.0364  15.0942  15.4615  15.5215  15.6703

          k = 0.0000 0.1925-0.5180 ( 10234 PWs)   bands (ev):

   -35.1985 -35.1942 -35.1813 -34.8437 -34.8119 -34.8021 -13.4700 -13.3998
   -13.3912 -13.3464 -13.3294 -13.3119 -13.2297 -13.1803 -13.1626 -13.0150
   -12.9379 -12.9172 -12.8298 -12.8178 -12.7819 -12.7729 -12.7160 -12.7113
     1.1198   1.3925   8.4713   8.5190   8.8712   9.1455   9.1877   9.4976
    10.0538  11.1220  11.2887  11.2984  11.3926  11.4018  12.2438  12.3632
    12.4883  12.8243  12.8842  13.2090  13.2689  13.4244  13.6439  13.7079
    14.2098  14.6132  14.9111  15.0077  15.0829  15.7471  15.8188  16.1599

          k =-0.1667 0.0962 0.5180 ( 10234 PWs)   bands (ev):

   -35.1986 -35.1940 -35.1813 -34.8436 -34.8121 -34.8020 -13.4703 -13.3963
   -13.3940 -13.3473 -13.3275 -13.3135 -13.2304 -13.1772 -13.1646 -13.0150
   -12.9347 -12.9211 -12.8299 -12.8153 -12.7880 -12.7685 -12.7162 -12.7112
     1.1200   1.3923   8.4754   8.5159   8.8711   9.1428   9.1885   9.4990
    10.0537  11.1209  11.2922  11.2970  11.3947  11.3994  12.2454  12.3629
    12.4851  12.8246  12.8826  13.2038  13.2700  13.4276  13.6388  13.7141
    14.2098  14.6135  14.9206  15.0012  15.0838  15.7482  15.8115  16.1708

          k = 0.0000 0.1925-0.7771 ( 10237 PWs)   bands (ev):

   -35.1944 -35.1915 -35.1782 -34.8428 -34.8099 -34.8000 -13.4455 -13.4110
   -13.4044 -13.3893 -13.3821 -13.3574 -13.1819 -13.1648 -13.1548 -13.0391
   -12.9324 -12.9262 -12.8568 -12.8431 -12.7910 -12.7817 -12.7341 -12.7296
     1.4897   1.4963   7.8556   8.6668   8.7766   8.8290   9.2569   9.3731
    10.4945  11.3056  11.3165  11.3308  11.3454  11.4540  12.2561  12.4678
    12.5033  12.6151  12.8824  13.0182  13.2771  13.3071  13.5372  13.6308
    14.1056  14.2418  14.7041  14.7857  15.5427  16.0376  16.0602  16.3750

          k =-0.1667 0.0962 0.7771 ( 10237 PWs)   bands (ev):

   -35.1945 -35.1914 -35.1782 -34.8428 -34.8099 -34.7999 -13.4461 -13.4122
   -13.4008 -13.3884 -13.3844 -13.3580 -13.1838 -13.1613 -13.1560 -13.0395
   -12.9334 -12.9247 -12.8560 -12.8432 -12.7953 -12.7784 -12.7365 -12.7275
     1.4896   1.4963   7.8555   8.6687   8.7753   8.8269   9.2633   9.3694
    10.4944  11.3061  11.3175  11.3264  11.3470  11.4557  12.2553  12.4648
    12.5056  12.6184  12.8718  13.0184  13.2806  13.3096  13.5440  13.6232
    14.1043  14.2435  14.7015  14.7919  15.5428  16.0357  16.0616  16.3757

          k =-0.1667 0.0962-1.0361 ( 10220 PWs)   bands (ev):

   -35.1929 -35.1903 -35.1769 -34.8425 -34.8090 -34.7991 -13.4352 -13.4346
   -13.4244 -13.3900 -13.3860 -13.3753 -13.1795 -13.1532 -13.1140 -13.0810
   -12.9356 -12.9211 -12.8737 -12.8493 -12.7912 -12.7731 -12.7510 -12.7409
     1.5417   1.6668   7.4251   8.4865   8.7485   8.8161   9.4983   9.5274
    10.7132  11.2246  11.2379  11.3484  11.3775  11.6684  12.1506  12.3528
    12.3570  12.3880  13.0311  13.1314  13.1961  13.2758  13.6599  13.7565
    14.0823  14.1683  14.5113  14.5259  16.1078  16.2024  16.2348  16.3450

          k =-0.3333 0.1925 0.0000 ( 10227 PWs)   bands (ev):

   -35.2032 -35.1983 -35.1862 -34.8463 -34.8149 -34.8036 -13.4853 -13.4196
   -13.4145 -13.2972 -13.2343 -13.2317 -13.2089 -13.2021 -13.1617 -13.0818
   -12.9369 -12.8570 -12.8169 -12.7625 -12.7487 -12.7314 -12.7284 -12.7092
     0.7909   1.1548   7.7987   7.9471   8.7822   9.3318   9.9207  10.6761
    10.7491  11.2105  11.2232  11.2936  11.4105  11.5704  11.7062  11.9732
    12.2312  12.6627  12.7127  13.6602  14.0368  14.2700  14.3605  14.4937
    14.6477  14.6759  14.7601  14.9831  15.0018  15.1032  15.3109  15.3903

          k = 0.0000 0.3849-0.2590 ( 10255 PWs)   bands (ev):

   -35.2012 -35.1978 -35.1846 -34.8461 -34.8129 -34.8037 -13.4769 -13.4214
   -13.4044 -13.2870 -13.2659 -13.2568 -13.2404 -13.2073 -13.1490 -13.0659
   -12.9338 -12.8646 -12.8216 -12.7892 -12.7528 -12.7352 -12.7282 -12.7141
     0.8951   1.2105   7.9665   8.0560   8.8408   9.3137   9.9945  10.2954
    10.4079  10.8915  11.2708  11.3325  11.3849  11.4027  11.8365  12.1371
    12.4621  12.7063  12.9194  13.3730  13.6945  13.8747  14.0114  14.1472
    14.4228  14.8040  14.8998  15.1452  15.2889  15.3239  15.4058  15.6041

          k =-0.3333 0.1925 0.2590 ( 10255 PWs)   bands (ev):

   -35.2016 -35.1972 -35.1848 -34.8458 -34.8141 -34.8029 -13.4777 -13.4155
   -13.4096 -13.2871 -13.2656 -13.2538 -13.2446 -13.2060 -13.1502 -13.0634
   -12.9335 -12.8706 -12.8210 -12.7832 -12.7568 -12.7349 -12.7242 -12.7168
     0.8967   1.2087   7.9727   8.0563   8.8403   9.3021   9.9933  10.2974
    10.4091  10.8907  11.2781  11.3325  11.3841  11.3990  11.8381  12.1361
    12.4641  12.7085  12.9194  13.3608  13.6988  13.8671  14.0153  14.1508
    14.4264  14.8049  14.9021  15.1474  15.2821  15.3180  15.4029  15.6150

          k = 0.0000 0.3849-0.5180 ( 10233 PWs)   bands (ev):

   -35.1975 -35.1950 -35.1814 -34.8446 -34.8113 -34.8018 -13.4591 -13.4133
   -13.3947 -13.3418 -13.3265 -13.2981 -13.2401 -13.1827 -13.1569 -13.0457
   -12.9378 -12.8973 -12.8316 -12.8081 -12.7746 -12.7604 -12.7322 -12.7204
     1.1738   1.3467   8.2891   8.4257   8.8122   9.1474   9.2926   9.5496
    10.2430  11.1198  11.2860  11.3085  11.4402  11.4517  12.2032  12.4898
    12.5711  12.6344  12.9074  13.1486  13.2923  13.4711  13.5479  13.7527
    14.2707  14.5470  14.9869  15.1576  15.3710  15.5114  15.7413  15.9810

          k =-0.3333 0.1925 0.5180 ( 10233 PWs)   bands (ev):

   -35.1979 -35.1943 -35.1816 -34.8444 -34.8120 -34.8014 -13.4605 -13.4070
   -13.3990 -13.3422 -13.3261 -13.2999 -13.2400 -13.1809 -13.1581 -13.0440
   -12.9349 -12.9031 -12.8313 -12.8042 -12.7812 -12.7548 -12.7349 -12.7193
     1.1747   1.3456   8.2910   8.4289   8.8078   9.1419   9.2935   9.5555
    10.2413  11.1173  11.2903  11.3087  11.4388  11.4534  12.2016  12.4894
    12.5692  12.6358  12.8966  13.1435  13.2973  13.4736  13.5555  13.7481
    14.2710  14.5434  15.0015  15.1543  15.3703  15.5152  15.7327  15.9877

          k = 0.0000 0.3849-0.7771 ( 10233 PWs)   bands (ev):

   -35.1938 -35.1921 -35.1782 -34.8431 -34.8098 -34.7999 -13.4436 -13.4106
   -13.4089 -13.3893 -13.3760 -13.3439 -13.1981 -13.1722 -13.1430 -13.0541
   -12.9429 -12.9361 -12.8422 -12.8337 -12.7816 -12.7663 -12.7482 -12.7348
     1.4926   1.4978   7.9458   8.4077   8.7876   8.9028   9.1534   9.4097
    10.5092  11.3099  11.3275  11.4064  11.4316  11.4788  12.2142  12.4470
    12.5315  12.6757  12.8385  13.0426  13.1801  13.2699  13.3634  13.5941
    14.2636  14.4361  15.0029  15.1449  15.6098  15.8332  16.0042  16.2050

          k =-0.3333 0.1925 0.7771 ( 10233 PWs)   bands (ev):

   -35.1943 -35.1915 -35.1784 -34.8430 -34.8099 -34.7998 -13.4454 -13.4118
   -13.4033 -13.3870 -13.3807 -13.3445 -13.2001 -13.1691 -13.1437 -13.0540
   -12.9456 -12.9325 -12.8422 -12.8310 -12.7880 -12.7649 -12.7501 -12.7316
     1.4919   1.4983   7.9460   8.4075   8.7852   8.9025   9.1601   9.4094
    10.5091  11.2991  11.3342  11.4121  11.4297  11.4805  12.2091  12.4435
    12.5325  12.6771  12.8325  13.0341  13.1863  13.2761  13.3669  13.5889
    14.2608  14.4400  15.0082  15.1506  15.6081  15.8334  16.0022  16.2076

          k =-0.3333 0.1925-1.0361 ( 10240 PWs)   bands (ev):

   -35.1928 -35.1903 -35.1770 -34.8425 -34.8090 -34.7991 -13.4375 -13.4345
   -13.4219 -13.3944 -13.3766 -13.3622 -13.2073 -13.1400 -13.1165 -13.0788
   -12.9699 -12.9282 -12.8470 -12.8452 -12.7835 -12.7703 -12.7518 -12.7437
     1.5591   1.6478   7.5688   8.2448   8.7430   8.9629   9.3581   9.4519
    10.6195  11.3149  11.3793  11.3852  11.4001  11.6582  12.0963  12.4059
    12.4237  12.5425  12.8547  13.0459  13.0976  13.3563  13.3676  13.4187
    14.3213  14.5712  14.9573  15.0014  15.8302  16.0310  16.3513  16.3655

          k = 0.5000-0.2887 0.0000 ( 10246 PWs)   bands (ev):

   -35.2024 -35.1987 -35.1865 -34.8471 -34.8148 -34.8030 -13.4703 -13.4345
   -13.4202 -13.2841 -13.2491 -13.2261 -13.2151 -13.2043 -13.1504 -13.0931
   -12.8929 -12.8750 -12.8197 -12.7675 -12.7519 -12.7393 -12.7279 -12.7071
     0.8760   1.0709   7.7284   7.8778   8.8669   9.3586   9.9151  10.7136
    10.8587  11.1331  11.2030  11.2972  11.4373  11.4988  11.8091  12.0188
    12.4540  12.4735  12.6769  13.6326  14.0429  14.2437  14.3710  14.3824
    14.6865  14.7170  14.8456  14.8826  14.9049  15.0507  15.2355  15.4203

          k = 0.5000-0.2887 0.2590 ( 10242 PWs)   bands (ev):

   -35.2010 -35.1975 -35.1851 -34.8464 -34.8140 -34.8024 -13.4652 -13.4279
   -13.4144 -13.2804 -13.2627 -13.2547 -13.2307 -13.2289 -13.1447 -13.0721
   -12.9115 -12.8763 -12.8232 -12.7697 -12.7602 -12.7487 -12.7218 -12.7218
     0.9708   1.1371   7.9026   7.9803   8.9102   9.3239  10.0010  10.3394
    10.4665  10.8497  11.2798  11.3406  11.3868  11.4108  11.9128  12.1656
    12.5019  12.7449  12.7683  13.3877  13.6741  13.8555  14.0647  14.0895
    14.5981  14.6487  14.9067  15.0605  15.2447  15.2711  15.4029  15.6123

          k = 0.5000-0.2887 0.5180 ( 10254 PWs)   bands (ev):

   -35.1976 -35.1945 -35.1818 -34.8447 -34.8119 -34.8011 -13.4544 -13.4141
   -13.3999 -13.3360 -13.3269 -13.3052 -13.2225 -13.1899 -13.1617 -13.0559
   -12.9356 -12.8990 -12.8322 -12.7798 -12.7757 -12.7611 -12.7483 -12.7234
     1.2186   1.3060   8.1873   8.3861   8.8075   9.1539   9.3638   9.5746
    10.2979  11.1131  11.2933  11.3099  11.4563  11.4888  12.2219  12.4521
    12.4774  12.6419  13.0303  13.0376  13.2537  13.5326  13.5735  13.8582
    14.3073  14.4778  14.9895  15.1161  15.4392  15.6054  15.8578  15.8736

          k = 0.5000-0.2887 0.7771 ( 10242 PWs)   bands (ev):

   -35.1941 -35.1915 -35.1784 -34.8431 -34.8099 -34.7997 -13.4449 -13.4068
   -13.4022 -13.3914 -13.3762 -13.3466 -13.2043 -13.1700 -13.1288 -13.0754
   -12.9504 -12.9351 -12.8416 -12.8049 -12.7855 -12.7801 -12.7459 -12.7353
     1.4908   1.5016   8.0469   8.2306   8.7884   8.9581   9.1118   9.4109
    10.5084  11.2860  11.3352  11.4500  11.4814  11.5022  12.1746  12.4731
    12.5104  12.7433  12.8443  12.9803  13.0691  13.2521  13.3183  13.6644
    14.3159  14.6501  15.1379  15.1762  15.6168  15.8275  16.0208  16.0415

          k = 0.5000-0.2887-1.0361 ( 10244 PWs)   bands (ev):

   -35.1927 -35.1903 -35.1770 -34.8424 -34.8091 -34.7992 -13.4366 -13.4328
   -13.4179 -13.3973 -13.3724 -13.3637 -13.2191 -13.1313 -13.1079 -13.0826
   -12.9932 -12.9305 -12.8457 -12.8197 -12.7909 -12.7805 -12.7452 -12.7418
     1.5732   1.6328   7.6941   8.0742   8.7499   9.0950   9.2397   9.3943
    10.5801  11.2973  11.3826  11.4628  11.4764  11.6510  12.0645  12.4137
    12.5443  12.5745  12.9065  12.9317  13.0108  13.2310  13.2508  13.4878
    14.3818  14.7665  15.2407  15.2513  15.5789  15.9784  16.3836  16.4040

          k =-0.1667 0.2887 0.0000 ( 10246 PWs)   bands (ev):

   -35.2034 -35.1984 -35.1859 -34.8461 -34.8145 -34.8042 -13.4908 -13.4181
   -13.4072 -13.3000 -13.2371 -13.2227 -13.2076 -13.2006 -13.1802 -13.0626
   -12.9533 -12.8612 -12.8160 -12.7568 -12.7486 -12.7281 -12.7255 -12.7118
     0.7596   1.1859   7.7442   8.1147   8.6771   9.3861   9.8696  10.6603
    10.7076  11.2469  11.2560  11.2711  11.4049  11.5965  11.6632  11.9128
    12.1405  12.7116  12.8033  13.7103  14.0200  14.2376  14.4037  14.4232
    14.6181  14.6530  14.8253  14.8973  14.9778  15.1705  15.2781  15.6193

          k =-0.1667 0.2887-0.2590 ( 10247 PWs)   bands (ev):

   -35.2018 -35.1972 -35.1846 -34.8456 -34.8137 -34.8035 -13.4824 -13.4143
   -13.4034 -13.2911 -13.2654 -13.2535 -13.2451 -13.1992 -13.1604 -13.0523
   -12.9424 -12.8737 -12.8203 -12.7848 -12.7554 -12.7323 -12.7243 -12.7141
     0.8693   1.2351   7.9083   8.2365   8.7397   9.3520   9.9486  10.2807
    10.3811  10.9091  11.2947  11.3098  11.3860  11.3911  11.8172  12.0689
    12.4265  12.8188  12.8977  13.4134  13.7383  13.8133  13.9882  14.1275
    14.4375  14.8430  14.9194  15.1485  15.1728  15.3294  15.5811  15.6002

          k = 0.1667-0.2887-0.2590 ( 10247 PWs)   bands (ev):

   -35.2018 -35.1972 -35.1846 -34.8456 -34.8137 -34.8035 -13.4824 -13.4143
   -13.4033 -13.2912 -13.2654 -13.2538 -13.2450 -13.1990 -13.1601 -13.0526
   -12.9423 -12.8737 -12.8203 -12.7849 -12.7552 -12.7316 -12.7250 -12.7143
     0.8693   1.2351   7.9077   8.2365   8.7384   9.3528   9.9476  10.2815
    10.3818  10.9106  11.2927  11.3103  11.3872  11.3932  11.8171  12.0693
    12.4257  12.8126  12.9060  13.4147  13.7473  13.8107  13.9931  14.1224
    14.4182  14.8422  14.9189  15.1549  15.1804  15.3245  15.5797  15.6027

          k = 0.1667 0.2887-0.2590 ( 10247 PWs)   bands (ev):

   -35.2016 -35.1976 -35.1845 -34.8458 -34.8129 -34.8040 -13.4821 -13.4171
   -13.4006 -13.2917 -13.2658 -13.2564 -13.2398 -13.2022 -13.1584 -13.0539
   -12.9439 -12.8681 -12.8205 -12.7901 -12.7480 -12.7377 -12.7274 -12.7108
     0.8684   1.2361   7.9023   8.2423   8.7312   9.3636   9.9488  10.2797
    10.3804  10.9121  11.2899  11.3063  11.3899  11.3939  11.8139  12.0745
    12.4231  12.8196  12.8998  13.4207  13.7573  13.7991  13.9907  14.1226
    14.4173  14.8364  14.9116  15.1558  15.1815  15.3333  15.5915  15.5957

          k =-0.1667 0.2887-0.5180 ( 10243 PWs)   bands (ev):

   -35.1980 -35.1944 -35.1815 -34.8443 -34.8118 -34.8017 -13.4627 -13.4081
   -13.3946 -13.3441 -13.3259 -13.3013 -13.2410 -13.1784 -13.1584 -13.0401
   -12.9322 -12.9065 -12.8312 -12.8117 -12.7792 -12.7604 -12.7246 -12.7207
     1.1583   1.3600   8.3056   8.5128   8.7582   9.2097   9.2346   9.5400
    10.1937  11.1177  11.2960  11.3002  11.4300  11.4365  12.2061  12.4537
    12.5454  12.7726  12.8173  13.2093  13.3213  13.4096  13.5344  13.7086
    14.2468  14.6327  14.9880  15.0814  15.3160  15.5920  15.7784  16.0091

          k = 0.1667-0.2887-0.5180 ( 10243 PWs)   bands (ev):

   -35.1980 -35.1944 -35.1815 -34.8443 -34.8118 -34.8017 -13.4626 -13.4081
   -13.3946 -13.3442 -13.3262 -13.3013 -13.2408 -13.1784 -13.1583 -13.0406
   -12.9321 -12.9064 -12.8312 -12.8117 -12.7790 -12.7603 -12.7249 -12.7207
     1.1583   1.3600   8.3049   8.5121   8.7535   9.2120   9.2388   9.5408
    10.1927  11.1190  11.2954  11.2974  11.4297  11.4383  12.2068  12.4569
    12.5460  12.7818  12.8061  13.2233  13.3250  13.4011  13.5433  13.7020
    14.2271  14.6271  14.9871  15.0945  15.3164  15.5871  15.7848  16.0007

          k = 0.1667 0.2887-0.5180 ( 10243 PWs)   bands (ev):

   -35.1977 -35.1948 -35.1814 -34.8444 -34.8114 -34.8020 -13.4618 -13.4114
   -13.3924 -13.3437 -13.3278 -13.2986 -13.2408 -13.1814 -13.1566 -13.0409
   -12.9349 -12.9024 -12.8310 -12.8141 -12.7709 -12.7675 -12.7252 -12.7200
     1.1579   1.3606   8.3016   8.5153   8.7525   9.2220   9.2311   9.5385
    10.1936  11.1219  11.2878  11.3001  11.4279  11.4403  12.2038  12.4620
    12.5465  12.7841  12.8135  13.2212  13.3283  13.3895  13.5480  13.7021
    14.2274  14.6212  14.9840  15.0919  15.3168  15.5936  15.7902  15.9945

          k =-0.1667 0.2887-0.7771 ( 10237 PWs)   bands (ev):

   -35.1942 -35.1916 -35.1783 -34.8430 -34.8099 -34.7999 -13.4441 -13.4169
   -13.3976 -13.3921 -13.3789 -13.3470 -13.1981 -13.1600 -13.1541 -13.0468
   -12.9411 -12.9348 -12.8429 -12.8397 -12.7842 -12.7689 -12.7456 -12.7324
     1.4942   1.4950   7.9164   8.5077   8.6970   8.9319   9.1967   9.3978
    10.5038  11.3107  11.3306  11.3845  11.4066  11.4697  12.1865  12.5142
    12.5202  12.6466  12.8697  13.0423  13.1555  13.3212  13.4066  13.5479
    14.2458  14.3605  14.9455  15.0751  15.5968  15.9388  15.9794  16.1638

          k = 0.1667-0.2887-0.7771 ( 10237 PWs)   bands (ev):

   -35.1942 -35.1916 -35.1783 -34.8430 -34.8099 -34.7999 -13.4440 -13.4168
   -13.3977 -13.3923 -13.3790 -13.3470 -13.1977 -13.1603 -13.1541 -13.0469
   -12.9410 -12.9347 -12.8429 -12.8397 -12.7840 -12.7689 -12.7459 -12.7324
     1.4942   1.4950   7.9158   8.5061   8.6962   8.9342   9.1966   9.3989
    10.5031  11.3062  11.3315  11.3848  11.4095  11.4687  12.1888  12.5158
    12.5259  12.6450  12.8670  13.0498  13.1510  13.3182  13.4155  13.5417
    14.2384  14.3564  14.9485  15.0752  15.5991  15.9382  15.9741  16.1672

          k = 0.1667 0.2887-0.7771 ( 10237 PWs)   bands (ev):

   -35.1938 -35.1920 -35.1782 -34.8430 -34.8098 -34.7999 -13.4425 -13.4171
   -13.3996 -13.3951 -13.3761 -13.3456 -13.1967 -13.1591 -13.1573 -13.0462
   -12.9402 -12.9366 -12.8422 -12.8412 -12.7763 -12.7758 -12.7412 -12.7364
     1.4944   1.4950   7.9158   8.5071   8.6950   8.9374   9.1887   9.4019
    10.5032  11.3160  11.3257  11.3778  11.4162  11.4644  12.1913  12.5165
    12.5232  12.6471  12.8742  13.0485  13.1512  13.3129  13.4225  13.5386
    14.2367  14.3551  14.9513  15.0663  15.6000  15.9390  15.9782  16.1556

          k =-0.1667 0.2887 1.0361 ( 10248 PWs)   bands (ev):

   -35.1926 -35.1904 -35.1769 -34.8425 -34.8091 -34.7991 -13.4361 -13.4339
   -13.4236 -13.3964 -13.3768 -13.3647 -13.2010 -13.1436 -13.1168 -13.0780
   -12.9506 -12.9394 -12.8544 -12.8475 -12.7788 -12.7616 -12.7607 -12.7452
     1.5542   1.6532   7.5250   8.3129   8.7452   8.9174   9.3936   9.4760
    10.6385  11.3323  11.3472  11.3568  11.3728  11.6616  12.0626  12.4075
    12.4848  12.4920  12.9313  13.0396  13.0724  13.3131  13.4231  13.5103
    14.3340  14.4103  14.8419  14.8823  16.0523  16.0594  16.2520  16.2987

          k =-0.1667 0.4811 0.0000 ( 10285 PWs)   bands (ev):

   -35.2018 -35.1996 -35.1862 -34.8475 -34.8135 -34.8039 -13.4703 -13.4394
   -13.4146 -13.2809 -13.2403 -13.2266 -13.2150 -13.2039 -13.1899 -13.0539
   -12.9166 -12.8647 -12.8199 -12.7688 -12.7550 -12.7368 -12.7209 -12.7112
     0.8695   1.0781   7.5610   8.1558   8.6879   9.4706   9.8755  10.7262
    10.8522  11.1340  11.2232  11.2840  11.4300  11.5124  11.7742  12.0117
    12.3726  12.5550  12.6827  13.7064  14.0651  14.1942  14.4155  14.4346
    14.4499  14.5778  14.6644  14.8093  15.0718  15.1522  15.3529  15.6365

          k =-0.3333 0.3849 0.0000 ( 10285 PWs)   bands (ev):

   -35.2023 -35.1989 -35.1864 -34.8472 -34.8144 -34.8033 -13.4716 -13.4359
   -13.4168 -13.2812 -13.2389 -13.2273 -13.2125 -13.2057 -13.1911 -13.0525
   -12.9177 -12.8670 -12.8197 -12.7649 -12.7533 -12.7387 -12.7250 -12.7086
     0.8718   1.0756   7.5629   8.1607   8.6831   9.4656   9.8734  10.7255
    10.8577  11.1308  11.2318  11.2764  11.4280  11.5115  11.7776  12.0127
    12.3727  12.5636  12.6776  13.6999  14.0724  14.1899  14.4096  14.4287
    14.4401  14.5859  14.6664  14.8188  15.0593  15.1488  15.3631  15.6805

          k =-0.1667 0.4811-0.2590 ( 10255 PWs)   bands (ev):

   -35.2004 -35.1983 -35.1848 -34.8468 -34.8129 -34.8032 -13.4643 -13.4343
   -13.4085 -13.2791 -13.2623 -13.2571 -13.2371 -13.2125 -13.1664 -13.0558
   -12.9180 -12.8731 -12.8235 -12.7772 -12.7572 -12.7407 -12.7277 -12.7201
     0.9649   1.1435   7.7271   8.2553   8.7387   9.4386   9.9771  10.3450
    10.4385  10.8656  11.2927  11.3265  11.3893  11.4036  11.8957  12.1480
    12.4227  12.7777  12.8920  13.3804  13.6832  13.7795  13.9238  14.1491
    14.6130  14.7319  14.9113  15.0559  15.1613  15.3407  15.5649  15.7587

          k = 0.1667-0.4811-0.2590 ( 10255 PWs)   bands (ev):

   -35.2004 -35.1983 -35.1848 -34.8468 -34.8129 -34.8032 -13.4642 -13.4342
   -13.4085 -13.2794 -13.2624 -13.2573 -13.2370 -13.2123 -13.1658 -13.0564
   -12.9179 -12.8731 -12.8235 -12.7772 -12.7567 -12.7403 -12.7281 -12.7206
     0.9649   1.1435   7.7265   8.2545   8.7365   9.4399   9.9755  10.3472
    10.4407  10.8663  11.2903  11.3237  11.3922  11.4080  11.8972  12.1498
    12.4259  12.7732  12.8910  13.3861  13.6882  13.7853  13.9273  14.1379
    14.5934  14.7208  14.9216  15.0616  15.1716  15.3271  15.5475  15.7565

          k =-0.3333 0.3849 0.2590 ( 10255 PWs)   bands (ev):

   -35.2009 -35.1977 -35.1850 -34.8465 -34.8136 -34.8027 -13.4656 -13.4306
   -13.4107 -13.2798 -13.2630 -13.2551 -13.2379 -13.2132 -13.1657 -13.0550
   -12.9177 -12.8766 -12.8233 -12.7736 -12.7546 -12.7460 -12.7250 -12.7216
     0.9669   1.1414   7.7281   8.2591   8.7322   9.4348   9.9739  10.3490
    10.4409  10.8660  11.2954  11.3243  11.3902  11.4059  11.8989  12.1506
    12.4238  12.7782  12.8898  13.3781  13.6943  13.7784  13.9317  14.1373
    14.5966  14.7179  14.9222  15.0598  15.1713  15.3202  15.5571  15.7644

          k = 0.3333-0.3849 0.2590 ( 10255 PWs)   bands (ev):

   -35.2009 -35.1977 -35.1850 -34.8465 -34.8136 -34.8027 -13.4657 -13.4307
   -13.4107 -13.2795 -13.2628 -13.2548 -13.2381 -13.2134 -13.1663 -13.0544
   -12.9179 -12.8766 -12.8233 -12.7737 -12.7549 -12.7464 -12.7245 -12.7213
     0.9669   1.1414   7.7287   8.2599   8.7344   9.4334   9.9755  10.3468
    10.4387  10.8653  11.2984  11.3267  11.3869  11.4016  11.8973  12.1487
    12.4206  12.7829  12.8905  13.3723  13.6895  13.7726  13.9284  14.1483
    14.6163  14.7289  14.9121  15.0517  15.1626  15.3333  15.5742  15.7548

          k = 0.3333 0.3849-0.2590 ( 10255 PWs)   bands (ev):

   -35.2000 -35.1988 -35.1847 -34.8469 -34.8125 -34.8035 -13.4636 -13.4356
   -13.4076 -13.2801 -13.2614 -13.2587 -13.2341 -13.2145 -13.1653 -13.0568
   -12.9200 -12.8688 -12.8238 -12.7806 -12.7536 -12.7422 -12.7295 -12.7187
     0.9640   1.1445   7.7247   8.2571   8.7327   9.4439   9.9778  10.3458
    10.4400  10.8674  11.2890  11.3218  11.3931  11.4085  11.8941  12.1542
    12.4241  12.7797  12.8855  13.3890  13.6901  13.7799  13.9263  14.1384
    14.5981  14.7122  14.9147  15.0736  15.1687  15.3331  15.5472  15.7519

          k =-0.1667 0.4811-0.5180 ( 10236 PWs)   bands (ev):

   -35.1970 -35.1953 -35.1816 -34.8450 -34.8113 -34.8015 -13.4509 -13.4236
   -13.3940 -13.3367 -13.3242 -13.3091 -13.2200 -13.1834 -13.1641 -13.0656
   -12.9293 -12.8995 -12.8324 -12.7879 -12.7715 -12.7556 -12.7426 -12.7312
     1.2142   1.3107   8.1369   8.4723   8.7109   9.2690   9.3769   9.5405
    10.2605  11.1187  11.2882  11.3027  11.4680  11.4814  12.2227  12.3527
    12.4635  12.8101  12.9854  13.1745  13.2699  13.4089  13.4371  13.8709
    14.3334  14.5677  15.0417  15.0864  15.4468  15.5447  15.7584  15.9484

          k = 0.1667-0.4811-0.5180 ( 10236 PWs)   bands (ev):

   -35.1970 -35.1953 -35.1816 -34.8450 -34.8113 -34.8015 -13.4508 -13.4234
   -13.3940 -13.3370 -13.3244 -13.3093 -13.2196 -13.1833 -13.1637 -13.0664
   -12.9291 -12.8993 -12.8324 -12.7878 -12.7707 -12.7557 -12.7430 -12.7315
     1.2142   1.3107   8.1359   8.4697   8.7054   9.2739   9.3814   9.5426
    10.2590  11.1196  11.2856  11.3001  11.4695  11.4820  12.2255  12.3569
    12.4656  12.8155  12.9843  13.1755  13.2779  13.4154  13.4387  13.8594
    14.3144  14.5586  15.0431  15.0905  15.4516  15.5453  15.7563  15.9335

          k =-0.3333 0.3849 0.5180 ( 10236 PWs)   bands (ev):

   -35.1974 -35.1947 -35.1817 -34.8448 -34.8117 -34.8012 -13.4526 -13.4198
   -13.3955 -13.3360 -13.3260 -13.3095 -13.2191 -13.1837 -13.1640 -13.0648
   -12.9265 -12.9039 -12.8322 -12.7848 -12.7734 -12.7528 -12.7471 -12.7297
     1.2153   1.3094   8.1370   8.4730   8.7014   9.2694   9.3806   9.5492
    10.2575  11.1182  11.2897  11.2983  11.4680  11.4840  12.2241  12.3550
    12.4665  12.8165  12.9783  13.1672  13.2820  13.4261  13.4370  13.8569
    14.3147  14.5566  15.0449  15.0979  15.4425  15.5520  15.7533  15.9345

          k = 0.3333-0.3849 0.5180 ( 10236 PWs)   bands (ev):

   -35.1974 -35.1947 -35.1817 -34.8448 -34.8117 -34.8012 -13.4527 -13.4200
   -13.3955 -13.3358 -13.3257 -13.3093 -13.2195 -13.1838 -13.1644 -13.0640
   -12.9267 -12.9040 -12.8322 -12.7850 -12.7737 -12.7538 -12.7459 -12.7295
     1.2153   1.3094   8.1380   8.4757   8.7069   9.2643   9.3763   9.5471
    10.2590  11.1173  11.2920  11.3014  11.4665  11.4834  12.2213  12.3508
    12.4644  12.8107  12.9801  13.1657  13.2745  13.4164  13.4385  13.8684
    14.3335  14.5657  15.0441  15.0929  15.4377  15.5519  15.7560  15.9484

          k = 0.3333 0.3849-0.5180 ( 10236 PWs)   bands (ev):

   -35.1965 -35.1958 -35.1815 -34.8450 -34.8111 -34.8017 -13.4499 -13.4252
   -13.3934 -13.3366 -13.3260 -13.3072 -13.2195 -13.1849 -13.1628 -13.0666
   -12.9302 -12.8978 -12.8324 -12.7885 -12.7682 -12.7579 -12.7438 -12.7306
     1.2136   1.3113   8.1348   8.4712   8.7045   9.2756   9.3807   9.5413
    10.2598  11.1213  11.2839  11.2991  11.4688  11.4826  12.2239  12.3566
    12.4687  12.8210  12.9886  13.1695  13.2728  13.4225  13.4346  13.8590
    14.3148  14.5560  15.0316  15.1019  15.4496  15.5512  15.7546  15.9268

          k =-0.1667 0.4811-0.7771 ( 10235 PWs)   bands (ev):

   -35.1935 -35.1922 -35.1783 -34.8432 -34.8097 -34.7998 -13.4393 -13.4177
   -13.3973 -13.3898 -13.3739 -13.3523 -13.2057 -13.1594 -13.1347 -13.0733
   -12.9478 -12.9443 -12.8416 -12.8129 -12.7758 -12.7632 -12.7563 -12.7400
     1.4937   1.4989   8.0311   8.2859   8.6522   9.0499   9.1495   9.3873
    10.4956  11.3030  11.3227  11.4401  11.4784  11.4964  12.0942  12.5530
    12.6157  12.7184  12.8771  12.9778  13.0751  13.2155  13.2735  13.6164
    14.3760  14.5639  15.1480  15.2699  15.6360  15.8422  15.9093  15.9952

          k = 0.1667-0.4811-0.7771 ( 10235 PWs)   bands (ev):

   -35.1935 -35.1922 -35.1783 -34.8432 -34.8097 -34.7998 -13.4391 -13.4174
   -13.3977 -13.3900 -13.3739 -13.3524 -13.2052 -13.1596 -13.1347 -13.0737
   -12.9477 -12.9442 -12.8416 -12.8128 -12.7748 -12.7641 -12.7563 -12.7401
     1.4937   1.4989   8.0298   8.2842   8.6505   9.0530   9.1511   9.3884
    10.4943  11.2994  11.3217  11.4413  11.4787  11.4963  12.0983  12.5549
    12.6210  12.7214  12.8775  12.9785  13.0799  13.2141  13.2756  13.6090
    14.3665  14.5576  15.1519  15.2703  15.6348  15.8436  15.9024  15.9985

          k =-0.3333 0.3849 0.7771 ( 10235 PWs)   bands (ev):

   -35.1940 -35.1917 -35.1784 -34.8431 -34.8098 -34.7998 -13.4409 -13.4148
   -13.3971 -13.3892 -13.3766 -13.3524 -13.2060 -13.1568 -13.1374 -13.0726
   -12.9503 -12.9412 -12.8416 -12.8092 -12.7788 -12.7711 -12.7510 -12.7386
     1.4931   1.4994   8.0303   8.2834   8.6498   9.0526   9.1542   9.3891
    10.4942  11.2914  11.3276  11.4434  11.4841  11.4919  12.0956  12.5488
    12.6212  12.7224  12.8780  12.9745  13.0820  13.2210  13.2718  13.6089
    14.3633  14.5600  15.1589  15.2727  15.6295  15.8470  15.9031  16.0004

          k = 0.3333-0.3849 0.7771 ( 10235 PWs)   bands (ev):

   -35.1940 -35.1917 -35.1784 -34.8431 -34.8098 -34.7998 -13.4411 -13.4151
   -13.3969 -13.3888 -13.3766 -13.3523 -13.2065 -13.1566 -13.1373 -13.0722
   -12.9504 -12.9414 -12.8416 -12.8093 -12.7792 -12.7710 -12.7507 -12.7385
     1.4931   1.4994   8.0315   8.2851   8.6514   9.0495   9.1526   9.3881
    10.4955  11.2945  11.3289  11.4422  11.4840  11.4920  12.0915  12.5469
    12.6155  12.7198  12.8778  12.9738  13.0774  13.2224  13.2693  13.6165
    14.3727  14.5662  15.1551  15.2722  15.6303  15.8467  15.9096  15.9977

          k = 0.3333 0.3849-0.7771 ( 10235 PWs)   bands (ev):

   -35.1930 -35.1927 -35.1783 -34.8432 -34.8097 -34.7999 -13.4381 -13.4180
   -13.3989 -13.3908 -13.3731 -13.3515 -13.2050 -13.1592 -13.1361 -13.0731
   -12.9483 -12.9440 -12.8414 -12.8136 -12.7725 -12.7664 -12.7534 -12.7421
     1.4936   1.4990   8.0294   8.2853   8.6499   9.0557   9.1459   9.3898
    10.4943  11.3028  11.3207  11.4378  11.4788  11.4972  12.0998  12.5519
    12.6215  12.7257  12.8811  12.9746  13.0757  13.2200  13.2759  13.6075
    14.3638  14.5588  15.1554  15.2641  15.6366  15.8468  15.8964  15.9925

          k =-0.1667 0.4811 1.0361 ( 10232 PWs)   bands (ev):

   -35.1921 -35.1909 -35.1770 -34.8424 -34.8091 -34.7991 -13.4322 -13.4279
   -13.4183 -13.4059 -13.3696 -13.3690 -13.2194 -13.1297 -13.1033 -13.0829
   -12.9808 -12.9518 -12.8455 -12.8270 -12.7784 -12.7666 -12.7513 -12.7495
     1.5757   1.6306   7.6908   8.0798   8.7639   9.0718   9.2527   9.3825
    10.5736  11.3214  11.3650  11.4529  11.4756  11.6561  11.9603  12.5331
    12.6409  12.6551  12.8217  12.9704  12.9945  13.2032  13.2427  13.3847
    14.4658  14.6516  15.2169  15.2648  15.7321  15.9932  16.3265  16.3507

          k =-0.3333 0.3849-1.0361 ( 10232 PWs)   bands (ev):

   -35.1926 -35.1904 -35.1770 -34.8424 -34.8091 -34.7992 -13.4310 -13.4298
   -13.4205 -13.4020 -13.3705 -13.3694 -13.2204 -13.1257 -13.1037 -13.0864
   -12.9825 -12.9478 -12.8457 -12.8231 -12.7847 -12.7718 -12.7480 -12.7461
     1.5757   1.6303   7.6930   8.0765   8.7640   9.0768   9.2508   9.3825
    10.5745  11.3137  11.3716  11.4596  11.4686  11.6587  11.9575  12.5309
    12.6408  12.6546  12.8191  12.9658  12.9931  13.2046  13.2472  13.3894
    14.4590  14.6569  15.2245  15.2657  15.7304  15.9931  16.3190  16.3404

          k = 0.3333-0.5774-0.2590 ( 10242 PWs)   bands (ev):

   -35.1999 -35.1987 -35.1850 -34.8471 -34.8128 -34.8030 -13.4513 -13.4474
   -13.4098 -13.2764 -13.2610 -13.2580 -13.2188 -13.2165 -13.1943 -13.0404
   -12.9006 -12.8947 -12.8248 -12.7613 -12.7545 -12.7531 -12.7294 -12.7225
     1.0531   1.0571   7.6143   8.5167   8.5185   9.5377   9.9309  10.4092
    10.4117  10.8684  11.3069  11.3070  11.4034  11.4039  12.0133  12.0200
    12.3595  12.9005  12.9104  13.4088  13.7323  13.7449  13.7553  14.1522
    14.6174  14.6188  14.9863  14.9994  15.3436  15.4597  15.5905  15.6054

          k = 0.3333-0.5774-0.5180 ( 10245 PWs)   bands (ev):

   -35.1967 -35.1955 -35.1817 -34.8451 -34.8113 -34.8014 -13.4402 -13.4358
   -13.3924 -13.3269 -13.3268 -13.3218 -13.1859 -13.1859 -13.1830 -13.0811
   -12.9154 -12.9097 -12.8328 -12.7671 -12.7608 -12.7593 -12.7488 -12.7480
     1.2624   1.2649   8.0565   8.5676   8.5699   9.4443   9.4475   9.4567
    10.2280  11.1292  11.2795  11.2865  11.4932  11.4955  12.2238  12.3449
    12.3459  12.9509  13.1595  13.2150  13.2221  13.2974  13.3072  13.9193
    14.4514  14.4521  15.0759  15.0826  15.6113  15.6305  15.7033  15.7138

          k = 0.3333-0.5774-0.7771 ( 10233 PWs)   bands (ev):

   -35.1934 -35.1923 -35.1784 -34.8432 -34.8097 -34.7998 -13.4300 -13.4259
   -13.3889 -13.3874 -13.3741 -13.3663 -13.2094 -13.1375 -13.1331 -13.0915
   -12.9528 -12.9488 -12.8412 -12.7912 -12.7824 -12.7607 -12.7527 -12.7515
     1.4966   1.4971   8.1544   8.1569   8.5597   9.1588   9.1666   9.3462
    10.4772  11.3025  11.3143  11.4338  11.5039  11.5131  12.0303  12.6608
    12.6677  12.7979  12.8304  13.0235  13.0248  13.1783  13.1894  13.5721
    14.4989  14.4989  15.3369  15.3394  15.7103  15.7656  15.7673  15.9119

     the Fermi energy is    13.9235 ev

!    total energy              =    -713.87806946 Ry
     estimated scf accuracy    <       0.00000022 Ry
     smearing contrib. (-TS)   =      -0.00344054 Ry
     internal energy E=F+TS    =    -713.87462891 Ry

     The total energy is F=E-TS. E is the sum of the following terms:
     one-electron contribution =    -151.97535374 Ry
     hartree contribution      =     124.45110564 Ry
     xc contribution           =    -144.35143918 Ry
     ewald contribution        =    -541.99894164 Ry

     convergence has been achieved in  15 iterations

     Writing all to output data dir ./tmp/Zr6NiTe2.save/ :
     XML data file, charge density, pseudopotentials, collected wavefunctions

     init_run     :    167.89s CPU    168.97s WALL (       1 calls)
     electrons    :   3924.39s CPU   3943.57s WALL (       1 calls)

     Called by init_run:
     wfcinit      :    166.60s CPU    167.51s WALL (       1 calls)
     potinit      :      0.18s CPU      0.21s WALL (       1 calls)
     hinit0       :      0.32s CPU      0.34s WALL (       1 calls)

     Called by electrons:
     c_bands      :   3532.11s CPU   3544.45s WALL (      15 calls)
     sum_band     :    379.54s CPU    384.03s WALL (      15 calls)
     v_of_rho     :      2.21s CPU      2.27s WALL (      16 calls)
     newd         :     10.66s CPU     13.08s WALL (      16 calls)
     mix_rho      :      0.44s CPU      0.44s WALL (      15 calls)

     Called by c_bands:
     init_us_2    :     21.80s CPU     21.84s WALL (    2759 calls)
     cegterg      :   3485.24s CPU   3497.51s WALL (    1335 calls)

     Called by *egterg:
     cdiaghg      :     45.90s CPU     45.96s WALL (    6631 calls)
     h_psi        :   1809.87s CPU   1821.57s WALL (    6720 calls)
     s_psi        :    410.69s CPU    410.99s WALL (    6720 calls)
     g_psi        :      3.91s CPU      3.92s WALL (    5296 calls)

     Called by h_psi:
     h_psi:calbec :    550.80s CPU    551.37s WALL (    6720 calls)
     vloc_psi     :    842.76s CPU    853.46s WALL (    6720 calls)
     add_vuspsi   :    410.68s CPU    410.96s WALL (    6720 calls)

     General routines
     calbec       :    754.02s CPU    754.74s WALL (    8055 calls)
     fft          :      1.52s CPU      1.57s WALL (     206 calls)
     ffts         :      0.10s CPU      0.10s WALL (      31 calls)
     fftw         :    820.82s CPU    830.88s WALL (  469122 calls)
     interpolate  :      0.20s CPU      0.20s WALL (      16 calls)

     Parallel routines

     PWSCF        :      1h 8m CPU      1h 8m WALL


   This run was terminated on:  16: 5: 1   3Aug2025            

=------------------------------------------------------------------------------=
   JOB DONE.
=------------------------------------------------------------------------------=
