
     Program PWSCF v.7.4.1 starts on  3Aug2025 at 18:57:33 

     This program is part of the open-source Quantum ESPRESSO suite
     for quantum simulation of materials; please cite
         "P. Giannozzi et al., J. Phys.:Condens. Matter 21 395502 (2009);
         "P. Giannozzi et al., J. Phys.:Condens. Matter 29 465901 (2017);
         "P. Giannozzi et al., J. Chem. Phys. 152 154105 (2020);
          URL http://www.quantum-espresso.org", 
     in publications or presentations arising from this work. More details at
     http://www.quantum-espresso.org/quote

     Parallel version (MPI), running on     2 processors

     MPI processes distributed on     1 nodes
     8306 MiB available memory on the printing compute node when the environment starts

     Waiting for input...
     Reading input from standard input
Warning: card &CELL ignored
Warning: card / ignored

     Current dimensions of program PWSCF are:
     Max number of different atomic species (ntypx) = 10
     Max number of k-points (npk) =  40000
     Max angular momentum in pseudopotentials (lmaxx) =  4
     Message from routine input:
     WARNING: "startingwfc" set to atomic+random may spoil restart
     Message from routine input:
     WARNING: "startingpot" set to atomic may spoil restart
     file Ni.pbe-nd-rrkjus.upf: wavefunction(s)  4S renormalized

     R & G space division:  proc/nbgrp/npool/nimage =       2
     Subspace diagonalization in iterative solution of the eigenvalue problem:
     a serial algorithm will be used


     Parallelization info
     --------------------
     sticks:   dense  smooth     PW     G-vecs:    dense   smooth      PW
     Min        2658    1767    507                75267    40916    6252
     Max        2659    1768    508                75268    40917    6253
     Sum        5317    3535   1015               150535    81833   12505

     Using Slab Decomposition



     bravais-lattice index     =            4
     lattice parameter (alat)  =      14.6159  a.u.
     unit-cell volume          =    1304.9057 (a.u.)^3
     number of atoms/cell      =            9
     number of atomic types    =            3
     number of electrons       =        94.00
     number of Kohn-Sham states=           56
     kinetic-energy cutoff     =      60.0000  Ry
     charge density cutoff     =     360.0000  Ry
     scf convergence threshold =      1.0E-06
     mixing beta               =       0.4000
     number of iterations used =            8  plain     mixing
     Exchange-correlation= SLA  PW   PBE  PBE
                           (   1   4   3   4   0   0   0)

     celldm(1)=  14.615898  celldm(2)=   0.000000  celldm(3)=   0.482583
     celldm(4)=   0.000000  celldm(5)=   0.000000  celldm(6)=   0.000000

     crystal axes: (cart. coord. in units of alat)
               a(1) = (   1.000000   0.000000   0.000000 )  
               a(2) = (  -0.500000   0.866025   0.000000 )  
               a(3) = (   0.000000   0.000000   0.482583 )  

     reciprocal axes: (cart. coord. in units 2 pi/alat)
               b(1) = (  1.000000  0.577350 -0.000000 )  
               b(2) = (  0.000000  1.154701  0.000000 )  
               b(3) = (  0.000000 -0.000000  2.072182 )  


     PseudoPot. # 1 for Zr read from file:
     /home/tauqeer/Zr6MTe2/sudopoten/Zr.pbe-nsp-van.upf
     MD5 check sum: f06f7249673c13908de31cca45056a07
     Pseudo is Ultrasoft + core correction, Zval = 12.0
     Generated by new atomic code, or converted to UPF format
     Using radial grid of  887 points,  6 beta functions with: 
                l(1) =   0
                l(2) =   0
                l(3) =   1
                l(4) =   1
                l(5) =   2
                l(6) =   2
     Q(r) pseudized with  6 coefficients,  rinner =    1.200   1.200   1.200
                                                       1.200   1.200

     PseudoPot. # 2 for Ni read from file:
     /home/tauqeer/Zr6MTe2/sudopoten/Ni.pbe-nd-rrkjus.upf
     MD5 check sum: d71bc9c4c8adef96ad6fe9664ede368e
     Pseudo is Ultrasoft + core correction, Zval = 10.0
     Generated by new atomic code, or converted to UPF format
     Using radial grid of 1203 points,  6 beta functions with: 
                l(1) =   0
                l(2) =   0
                l(3) =   1
                l(4) =   1
                l(5) =   2
                l(6) =   2
     Q(r) pseudized with 0 coefficients 


     PseudoPot. # 3 for Te read from file:
     /home/tauqeer/Zr6MTe2/sudopoten/Te.pbe-rrkj.upf
     MD5 check sum: 22c11190d1be98e87836461ecdaaa002
     Pseudo is Norm-conserving, Zval =  6.0
     Generated by new atomic code, or converted to UPF format
     Using radial grid of 1191 points,  3 beta functions with: 
                l(1) =   0
                l(2) =   0
                l(3) =   2

     atomic species   valence    mass     pseudopotential
     Zr               12.00    91.22400     Zr( 1.00)
     Ni               10.00    58.69340     Ni( 1.00)
     Te                6.00   127.60000     Te( 1.00)

      2 Sym. Ops. (no inversion) found


                                    s                        frac. trans.

      isym =  1     identity                                     

 cryst.   s( 1) = (     1          0          0      )
                  (     0          1          0      )
                  (     0          0          1      )

 cart.    s( 1) = (  1.0000000  0.0000000  0.0000000 )
                  (  0.0000000  1.0000000  0.0000000 )
                  (  0.0000000  0.0000000  1.0000000 )


      isym =  2     inv. 180 deg rotation - cryst. axis [1,-1,0] 

 cryst.   s( 2) = (     0          1          0      )
                  (     1          0          0      )
                  (     0          0          1      )

 cart.    s( 2) = ( -0.5000000  0.8660254  0.0000000 )
                  (  0.8660254  0.5000000  0.0000000 )
                  (  0.0000000  0.0000000  1.0000000 )


     point group C_s (m)    
     there are  2 classes
     the character table:

       E     s    
A'     1.00  1.00
A''    1.00 -1.00

     the symmetry operations in each class and the name of the first element:

     E        1
          identity                                               
     s        2
          inv. 180 deg rotation - cryst. axis [1,-1,0]           

   Cartesian axes

     site n.     atom                  positions (alat units)
         1        Zr     tau(   1) = (   0.2373720   0.0000000   0.0000000  )
         2        Zr     tau(   2) = (  -0.1186860   0.2055702   0.0000000  )
         3        Zr     tau(   3) = (   0.3800213   0.6582163   0.0000000  )
         4        Zr     tau(   4) = (   0.5908246   0.0000000   0.2399984  )
         5        Zr     tau(   5) = (  -0.2954123   0.5116692   0.2399984  )
         6        Zr     tau(   6) = (   0.2032950   0.3521173   0.2399984  )
         7        Ni     tau(   7) = (   0.0000000   0.0000000   0.2399984  )
         8        Te     tau(   8) = (  -0.0000000   0.5758576   0.0000000  )
         9        Te     tau(   9) = (   0.4987073   0.2879289   0.0000000  )

   Crystallographic axes

     site n.     atom                  positions (cryst. coord.)
         1        Zr     tau(   1) = (  0.2373720  0.0000000  0.0000000  )
         2        Zr     tau(   2) = ( -0.0000000  0.2373720  0.0000000  )
         3        Zr     tau(   3) = (  0.7600427  0.7600427  0.0000000  )
         4        Zr     tau(   4) = (  0.5908246  0.0000000  0.4973206  )
         5        Zr     tau(   5) = (  0.0000000  0.5908247  0.4973206  )
         6        Zr     tau(   6) = (  0.4065900  0.4065900  0.4973206  )
         7        Ni     tau(   7) = (  0.0000000  0.0000000  0.4973206  )
         8        Te     tau(   8) = (  0.3324715  0.6649431  0.0000000  )
         9        Te     tau(   9) = (  0.6649431  0.3324716  0.0000000  )

     number of k points=   398  Gaussian smearing, width (Ry)=  0.0100
                       cart. coord. in units 2pi/alat
        k(    1) = (   0.0000000   0.0000000   0.0000000), wk =   0.0013889
        k(    2) = (   0.0000000   0.0000000   0.2072182), wk =   0.0027778
        k(    3) = (   0.0000000   0.0000000   0.4144365), wk =   0.0027778
        k(    4) = (   0.0000000   0.0000000   0.6216547), wk =   0.0027778
        k(    5) = (   0.0000000   0.0000000   0.8288730), wk =   0.0027778
        k(    6) = (   0.0000000   0.0000000  -1.0360912), wk =   0.0013889
        k(    7) = (   0.0000000   0.0962250   0.0000000), wk =   0.0055556
        k(    8) = (   0.0000000   0.0962250   0.2072182), wk =   0.0055556
        k(    9) = (   0.0000000   0.0962250   0.4144365), wk =   0.0055556
        k(   10) = (   0.0000000   0.0962250   0.6216547), wk =   0.0055556
        k(   11) = (   0.0000000   0.0962250   0.8288730), wk =   0.0055556
        k(   12) = (   0.0000000   0.0962250  -1.0360912), wk =   0.0055556
        k(   13) = (   0.0000000   0.1924501   0.0000000), wk =   0.0055556
        k(   14) = (   0.0000000   0.1924501   0.2072182), wk =   0.0055556
        k(   15) = (   0.0000000   0.1924501   0.4144365), wk =   0.0055556
        k(   16) = (   0.0000000   0.1924501   0.6216547), wk =   0.0055556
        k(   17) = (   0.0000000   0.1924501   0.8288730), wk =   0.0055556
        k(   18) = (   0.0000000   0.1924501  -1.0360912), wk =   0.0055556
        k(   19) = (   0.0000000   0.2886751   0.0000000), wk =   0.0055556
        k(   20) = (   0.0000000   0.2886751   0.2072182), wk =   0.0055556
        k(   21) = (   0.0000000   0.2886751   0.4144365), wk =   0.0055556
        k(   22) = (   0.0000000   0.2886751   0.6216547), wk =   0.0055556
        k(   23) = (   0.0000000   0.2886751   0.8288730), wk =   0.0055556
        k(   24) = (   0.0000000   0.2886751  -1.0360912), wk =   0.0055556
        k(   25) = (   0.0000000   0.3849002   0.0000000), wk =   0.0055556
        k(   26) = (   0.0000000   0.3849002   0.2072182), wk =   0.0055556
        k(   27) = (   0.0000000   0.3849002   0.4144365), wk =   0.0055556
        k(   28) = (   0.0000000   0.3849002   0.6216547), wk =   0.0055556
        k(   29) = (   0.0000000   0.3849002   0.8288730), wk =   0.0055556
        k(   30) = (   0.0000000   0.3849002  -1.0360912), wk =   0.0055556
        k(   31) = (   0.0000000   0.4811252   0.0000000), wk =   0.0055556
        k(   32) = (   0.0000000   0.4811252   0.2072182), wk =   0.0055556
        k(   33) = (   0.0000000   0.4811252   0.4144365), wk =   0.0055556
        k(   34) = (   0.0000000   0.4811252   0.6216547), wk =   0.0055556
        k(   35) = (   0.0000000   0.4811252   0.8288730), wk =   0.0055556
        k(   36) = (   0.0000000   0.4811252  -1.0360912), wk =   0.0055556
        k(   37) = (   0.0000000  -0.5773503   0.0000000), wk =   0.0027778
        k(   38) = (   0.0000000  -0.5773503   0.2072182), wk =   0.0055556
        k(   39) = (   0.0000000  -0.5773503   0.4144365), wk =   0.0055556
        k(   40) = (   0.0000000  -0.5773503   0.6216547), wk =   0.0055556
        k(   41) = (   0.0000000  -0.5773503   0.8288730), wk =   0.0055556
        k(   42) = (   0.0000000  -0.5773503  -1.0360912), wk =   0.0027778
        k(   43) = (   0.0833333   0.1443376   0.0000000), wk =   0.0027778
        k(   44) = (   0.0833333   0.1443376   0.2072182), wk =   0.0027778
        k(   45) = (   0.0833333   0.1443376   0.4144365), wk =   0.0027778
        k(   46) = (   0.0833333   0.1443376   0.6216547), wk =   0.0027778
        k(   47) = (   0.0833333   0.1443376   0.8288730), wk =   0.0027778
        k(   48) = (   0.0833333   0.1443376  -1.0360912), wk =   0.0027778
        k(   49) = (   0.0833333   0.2405626   0.0000000), wk =   0.0055556
        k(   50) = (   0.0833333   0.2405626   0.2072182), wk =   0.0055556
        k(   51) = (   0.0833333   0.2405626   0.4144365), wk =   0.0055556
        k(   52) = (   0.0833333   0.2405626   0.6216547), wk =   0.0055556
        k(   53) = (   0.0833333   0.2405626   0.8288730), wk =   0.0055556
        k(   54) = (   0.0833333   0.2405626  -1.0360912), wk =   0.0055556
        k(   55) = (   0.0833333   0.3367877   0.0000000), wk =   0.0055556
        k(   56) = (   0.0833333   0.3367877   0.2072182), wk =   0.0055556
        k(   57) = (   0.0833333   0.3367877   0.4144365), wk =   0.0055556
        k(   58) = (   0.0833333   0.3367877   0.6216547), wk =   0.0055556
        k(   59) = (   0.0833333   0.3367877   0.8288730), wk =   0.0055556
        k(   60) = (   0.0833333   0.3367877  -1.0360912), wk =   0.0055556
        k(   61) = (   0.0833333   0.4330127   0.0000000), wk =   0.0055556
        k(   62) = (   0.0833333   0.4330127   0.2072182), wk =   0.0055556
        k(   63) = (   0.0833333   0.4330127   0.4144365), wk =   0.0055556
        k(   64) = (   0.0833333   0.4330127   0.6216547), wk =   0.0055556
        k(   65) = (   0.0833333   0.4330127   0.8288730), wk =   0.0055556
        k(   66) = (   0.0833333   0.4330127  -1.0360912), wk =   0.0055556
        k(   67) = (   0.0833333   0.5292377   0.0000000), wk =   0.0055556
        k(   68) = (   0.0833333   0.5292377   0.2072182), wk =   0.0055556
        k(   69) = (   0.0833333   0.5292377   0.4144365), wk =   0.0055556
        k(   70) = (   0.0833333   0.5292377   0.6216547), wk =   0.0055556
        k(   71) = (   0.0833333   0.5292377   0.8288730), wk =   0.0055556
        k(   72) = (   0.0833333   0.5292377  -1.0360912), wk =   0.0055556
        k(   73) = (   0.1666667   0.2886751   0.0000000), wk =   0.0027778
        k(   74) = (   0.1666667   0.2886751   0.2072182), wk =   0.0027778
        k(   75) = (   0.1666667   0.2886751   0.4144365), wk =   0.0027778
        k(   76) = (   0.1666667   0.2886751   0.6216547), wk =   0.0027778
        k(   77) = (   0.1666667   0.2886751   0.8288730), wk =   0.0027778
        k(   78) = (   0.1666667   0.2886751  -1.0360912), wk =   0.0027778
        k(   79) = (   0.1666667   0.3849002   0.0000000), wk =   0.0055556
        k(   80) = (   0.1666667   0.3849002   0.2072182), wk =   0.0055556
        k(   81) = (   0.1666667   0.3849002   0.4144365), wk =   0.0055556
        k(   82) = (   0.1666667   0.3849002   0.6216547), wk =   0.0055556
        k(   83) = (   0.1666667   0.3849002   0.8288730), wk =   0.0055556
        k(   84) = (   0.1666667   0.3849002  -1.0360912), wk =   0.0055556
        k(   85) = (   0.1666667   0.4811252   0.0000000), wk =   0.0055556
        k(   86) = (   0.1666667   0.4811252   0.2072182), wk =   0.0055556
        k(   87) = (   0.1666667   0.4811252   0.4144365), wk =   0.0055556
        k(   88) = (   0.1666667   0.4811252   0.6216547), wk =   0.0055556
        k(   89) = (   0.1666667   0.4811252   0.8288730), wk =   0.0055556
        k(   90) = (   0.1666667   0.4811252  -1.0360912), wk =   0.0055556
        k(   91) = (   0.1666667   0.5773503   0.0000000), wk =   0.0055556
        k(   92) = (   0.1666667   0.5773503   0.2072182), wk =   0.0055556
        k(   93) = (   0.1666667   0.5773503   0.4144365), wk =   0.0055556
        k(   94) = (   0.1666667   0.5773503   0.6216547), wk =   0.0055556
        k(   95) = (   0.1666667   0.5773503   0.8288730), wk =   0.0055556
        k(   96) = (   0.1666667   0.5773503  -1.0360912), wk =   0.0055556
        k(   97) = (   0.2500000   0.4330127   0.0000000), wk =   0.0027778
        k(   98) = (   0.2500000   0.4330127   0.2072182), wk =   0.0027778
        k(   99) = (   0.2500000   0.4330127   0.4144365), wk =   0.0027778
        k(  100) = (   0.2500000   0.4330127   0.6216547), wk =   0.0027778
        k(  101) = (   0.2500000   0.4330127   0.8288730), wk =   0.0027778
        k(  102) = (   0.2500000   0.4330127  -1.0360912), wk =   0.0027778
        k(  103) = (   0.2500000   0.5292377   0.0000000), wk =   0.0055556
        k(  104) = (   0.2500000   0.5292377   0.2072182), wk =   0.0055556
        k(  105) = (   0.2500000   0.5292377   0.4144365), wk =   0.0055556
        k(  106) = (   0.2500000   0.5292377   0.6216547), wk =   0.0055556
        k(  107) = (   0.2500000   0.5292377   0.8288730), wk =   0.0055556
        k(  108) = (   0.2500000   0.5292377  -1.0360912), wk =   0.0055556
        k(  109) = (   0.3333333   0.5773503   0.0000000), wk =   0.0027778
        k(  110) = (   0.3333333   0.5773503   0.2072182), wk =   0.0027778
        k(  111) = (   0.3333333   0.5773503   0.4144365), wk =   0.0027778
        k(  112) = (   0.3333333   0.5773503   0.6216547), wk =   0.0027778
        k(  113) = (   0.3333333   0.5773503   0.8288730), wk =   0.0027778
        k(  114) = (   0.3333333   0.5773503  -1.0360912), wk =   0.0027778
        k(  115) = (  -0.0833333   0.0481125   0.0000000), wk =   0.0027778
        k(  116) = (   0.0000000   0.0962250  -0.2072182), wk =   0.0055556
        k(  117) = (  -0.0833333   0.0481125   0.2072182), wk =   0.0055556
        k(  118) = (   0.0000000   0.0962250  -0.4144365), wk =   0.0055556
        k(  119) = (  -0.0833333   0.0481125   0.4144365), wk =   0.0055556
        k(  120) = (   0.0000000   0.0962250  -0.6216547), wk =   0.0055556
        k(  121) = (  -0.0833333   0.0481125   0.6216547), wk =   0.0055556
        k(  122) = (   0.0000000   0.0962250  -0.8288730), wk =   0.0055556
        k(  123) = (  -0.0833333   0.0481125   0.8288730), wk =   0.0055556
        k(  124) = (  -0.0833333   0.0481125  -1.0360912), wk =   0.0027778
        k(  125) = (  -0.1666667   0.0962250   0.0000000), wk =   0.0027778
        k(  126) = (   0.0000000   0.1924501  -0.2072182), wk =   0.0055556
        k(  127) = (  -0.1666667   0.0962250   0.2072182), wk =   0.0055556
        k(  128) = (   0.0000000   0.1924501  -0.4144365), wk =   0.0055556
        k(  129) = (  -0.1666667   0.0962250   0.4144365), wk =   0.0055556
        k(  130) = (   0.0000000   0.1924501  -0.6216547), wk =   0.0055556
        k(  131) = (  -0.1666667   0.0962250   0.6216547), wk =   0.0055556
        k(  132) = (   0.0000000   0.1924501  -0.8288730), wk =   0.0055556
        k(  133) = (  -0.1666667   0.0962250   0.8288730), wk =   0.0055556
        k(  134) = (  -0.1666667   0.0962250  -1.0360912), wk =   0.0027778
        k(  135) = (  -0.2500000   0.1443376   0.0000000), wk =   0.0027778
        k(  136) = (   0.0000000   0.2886751  -0.2072182), wk =   0.0055556
        k(  137) = (  -0.2500000   0.1443376   0.2072182), wk =   0.0055556
        k(  138) = (   0.0000000   0.2886751  -0.4144365), wk =   0.0055556
        k(  139) = (  -0.2500000   0.1443376   0.4144365), wk =   0.0055556
        k(  140) = (   0.0000000   0.2886751  -0.6216547), wk =   0.0055556
        k(  141) = (  -0.2500000   0.1443376   0.6216547), wk =   0.0055556
        k(  142) = (   0.0000000   0.2886751  -0.8288730), wk =   0.0055556
        k(  143) = (  -0.2500000   0.1443376   0.8288730), wk =   0.0055556
        k(  144) = (  -0.2500000   0.1443376  -1.0360912), wk =   0.0027778
        k(  145) = (  -0.3333333   0.1924501   0.0000000), wk =   0.0027778
        k(  146) = (   0.0000000   0.3849002  -0.2072182), wk =   0.0055556
        k(  147) = (  -0.3333333   0.1924501   0.2072182), wk =   0.0055556
        k(  148) = (   0.0000000   0.3849002  -0.4144365), wk =   0.0055556
        k(  149) = (  -0.3333333   0.1924501   0.4144365), wk =   0.0055556
        k(  150) = (   0.0000000   0.3849002  -0.6216547), wk =   0.0055556
        k(  151) = (  -0.3333333   0.1924501   0.6216547), wk =   0.0055556
        k(  152) = (   0.0000000   0.3849002  -0.8288730), wk =   0.0055556
        k(  153) = (  -0.3333333   0.1924501   0.8288730), wk =   0.0055556
        k(  154) = (  -0.3333333   0.1924501  -1.0360912), wk =   0.0027778
        k(  155) = (  -0.4166667   0.2405626   0.0000000), wk =   0.0027778
        k(  156) = (   0.0000000   0.4811252  -0.2072182), wk =   0.0055556
        k(  157) = (  -0.4166667   0.2405626   0.2072182), wk =   0.0055556
        k(  158) = (   0.0000000   0.4811252  -0.4144365), wk =   0.0055556
        k(  159) = (  -0.4166667   0.2405626   0.4144365), wk =   0.0055556
        k(  160) = (   0.0000000   0.4811252  -0.6216547), wk =   0.0055556
        k(  161) = (  -0.4166667   0.2405626   0.6216547), wk =   0.0055556
        k(  162) = (   0.0000000   0.4811252  -0.8288730), wk =   0.0055556
        k(  163) = (  -0.4166667   0.2405626   0.8288730), wk =   0.0055556
        k(  164) = (  -0.4166667   0.2405626  -1.0360912), wk =   0.0027778
        k(  165) = (   0.5000000  -0.2886751   0.0000000), wk =   0.0013889
        k(  166) = (   0.5000000  -0.2886751   0.2072182), wk =   0.0027778
        k(  167) = (   0.5000000  -0.2886751   0.4144365), wk =   0.0027778
        k(  168) = (   0.5000000  -0.2886751   0.6216547), wk =   0.0027778
        k(  169) = (   0.5000000  -0.2886751   0.8288730), wk =   0.0027778
        k(  170) = (   0.5000000  -0.2886751  -1.0360912), wk =   0.0013889
        k(  171) = (  -0.0833333   0.1443376   0.0000000), wk =   0.0055556
        k(  172) = (  -0.0833333   0.1443376  -0.2072182), wk =   0.0055556
        k(  173) = (   0.0833333  -0.1443376  -0.2072182), wk =   0.0055556
        k(  174) = (   0.0833333   0.1443376  -0.2072182), wk =   0.0027778
        k(  175) = (  -0.0833333   0.1443376  -0.4144365), wk =   0.0055556
        k(  176) = (   0.0833333  -0.1443376  -0.4144365), wk =   0.0055556
        k(  177) = (   0.0833333   0.1443376  -0.4144365), wk =   0.0027778
        k(  178) = (  -0.0833333   0.1443376  -0.6216547), wk =   0.0055556
        k(  179) = (   0.0833333  -0.1443376  -0.6216547), wk =   0.0055556
        k(  180) = (   0.0833333   0.1443376  -0.6216547), wk =   0.0027778
        k(  181) = (  -0.0833333   0.1443376  -0.8288730), wk =   0.0055556
        k(  182) = (   0.0833333  -0.1443376  -0.8288730), wk =   0.0055556
        k(  183) = (   0.0833333   0.1443376  -0.8288730), wk =   0.0027778
        k(  184) = (  -0.0833333   0.1443376   1.0360912), wk =   0.0055556
        k(  185) = (  -0.0833333   0.2405626   0.0000000), wk =   0.0055556
        k(  186) = (  -0.1666667   0.1924501   0.0000000), wk =   0.0055556
        k(  187) = (  -0.0833333   0.2405626  -0.2072182), wk =   0.0055556
        k(  188) = (   0.0833333  -0.2405626  -0.2072182), wk =   0.0055556
        k(  189) = (  -0.1666667   0.1924501   0.2072182), wk =   0.0055556
        k(  190) = (   0.1666667  -0.1924501   0.2072182), wk =   0.0055556
        k(  191) = (   0.1666667   0.1924501  -0.2072182), wk =   0.0055556
        k(  192) = (  -0.0833333   0.2405626  -0.4144365), wk =   0.0055556
        k(  193) = (   0.0833333  -0.2405626  -0.4144365), wk =   0.0055556
        k(  194) = (  -0.1666667   0.1924501   0.4144365), wk =   0.0055556
        k(  195) = (   0.1666667  -0.1924501   0.4144365), wk =   0.0055556
        k(  196) = (   0.1666667   0.1924501  -0.4144365), wk =   0.0055556
        k(  197) = (  -0.0833333   0.2405626  -0.6216547), wk =   0.0055556
        k(  198) = (   0.0833333  -0.2405626  -0.6216547), wk =   0.0055556
        k(  199) = (  -0.1666667   0.1924501   0.6216547), wk =   0.0055556
        k(  200) = (   0.1666667  -0.1924501   0.6216547), wk =   0.0055556
        k(  201) = (   0.1666667   0.1924501  -0.6216547), wk =   0.0055556
        k(  202) = (  -0.0833333   0.2405626  -0.8288730), wk =   0.0055556
        k(  203) = (   0.0833333  -0.2405626  -0.8288730), wk =   0.0055556
        k(  204) = (  -0.1666667   0.1924501   0.8288730), wk =   0.0055556
        k(  205) = (   0.1666667  -0.1924501   0.8288730), wk =   0.0055556
        k(  206) = (   0.1666667   0.1924501  -0.8288730), wk =   0.0055556
        k(  207) = (  -0.0833333   0.2405626   1.0360912), wk =   0.0055556
        k(  208) = (  -0.1666667   0.1924501  -1.0360912), wk =   0.0055556
        k(  209) = (  -0.0833333   0.3367877   0.0000000), wk =   0.0055556
        k(  210) = (  -0.2500000   0.2405626   0.0000000), wk =   0.0055556
        k(  211) = (  -0.0833333   0.3367877  -0.2072182), wk =   0.0055556
        k(  212) = (   0.0833333  -0.3367877  -0.2072182), wk =   0.0055556
        k(  213) = (  -0.2500000   0.2405626   0.2072182), wk =   0.0055556
        k(  214) = (   0.2500000  -0.2405626   0.2072182), wk =   0.0055556
        k(  215) = (   0.2500000   0.2405626  -0.2072182), wk =   0.0055556
        k(  216) = (  -0.0833333   0.3367877  -0.4144365), wk =   0.0055556
        k(  217) = (   0.0833333  -0.3367877  -0.4144365), wk =   0.0055556
        k(  218) = (  -0.2500000   0.2405626   0.4144365), wk =   0.0055556
        k(  219) = (   0.2500000  -0.2405626   0.4144365), wk =   0.0055556
        k(  220) = (   0.2500000   0.2405626  -0.4144365), wk =   0.0055556
        k(  221) = (  -0.0833333   0.3367877  -0.6216547), wk =   0.0055556
        k(  222) = (   0.0833333  -0.3367877  -0.6216547), wk =   0.0055556
        k(  223) = (  -0.2500000   0.2405626   0.6216547), wk =   0.0055556
        k(  224) = (   0.2500000  -0.2405626   0.6216547), wk =   0.0055556
        k(  225) = (   0.2500000   0.2405626  -0.6216547), wk =   0.0055556
        k(  226) = (  -0.0833333   0.3367877  -0.8288730), wk =   0.0055556
        k(  227) = (   0.0833333  -0.3367877  -0.8288730), wk =   0.0055556
        k(  228) = (  -0.2500000   0.2405626   0.8288730), wk =   0.0055556
        k(  229) = (   0.2500000  -0.2405626   0.8288730), wk =   0.0055556
        k(  230) = (   0.2500000   0.2405626  -0.8288730), wk =   0.0055556
        k(  231) = (  -0.0833333   0.3367877   1.0360912), wk =   0.0055556
        k(  232) = (  -0.2500000   0.2405626  -1.0360912), wk =   0.0055556
        k(  233) = (  -0.0833333   0.4330127   0.0000000), wk =   0.0055556
        k(  234) = (  -0.3333333   0.2886751   0.0000000), wk =   0.0055556
        k(  235) = (  -0.0833333   0.4330127  -0.2072182), wk =   0.0055556
        k(  236) = (   0.0833333  -0.4330127  -0.2072182), wk =   0.0055556
        k(  237) = (  -0.3333333   0.2886751   0.2072182), wk =   0.0055556
        k(  238) = (   0.3333333  -0.2886751   0.2072182), wk =   0.0055556
        k(  239) = (   0.3333333   0.2886751  -0.2072182), wk =   0.0055556
        k(  240) = (  -0.0833333   0.4330127  -0.4144365), wk =   0.0055556
        k(  241) = (   0.0833333  -0.4330127  -0.4144365), wk =   0.0055556
        k(  242) = (  -0.3333333   0.2886751   0.4144365), wk =   0.0055556
        k(  243) = (   0.3333333  -0.2886751   0.4144365), wk =   0.0055556
        k(  244) = (   0.3333333   0.2886751  -0.4144365), wk =   0.0055556
        k(  245) = (  -0.0833333   0.4330127  -0.6216547), wk =   0.0055556
        k(  246) = (   0.0833333  -0.4330127  -0.6216547), wk =   0.0055556
        k(  247) = (  -0.3333333   0.2886751   0.6216547), wk =   0.0055556
        k(  248) = (   0.3333333  -0.2886751   0.6216547), wk =   0.0055556
        k(  249) = (   0.3333333   0.2886751  -0.6216547), wk =   0.0055556
        k(  250) = (  -0.0833333   0.4330127  -0.8288730), wk =   0.0055556
        k(  251) = (   0.0833333  -0.4330127  -0.8288730), wk =   0.0055556
        k(  252) = (  -0.3333333   0.2886751   0.8288730), wk =   0.0055556
        k(  253) = (   0.3333333  -0.2886751   0.8288730), wk =   0.0055556
        k(  254) = (   0.3333333   0.2886751  -0.8288730), wk =   0.0055556
        k(  255) = (  -0.0833333   0.4330127   1.0360912), wk =   0.0055556
        k(  256) = (  -0.3333333   0.2886751  -1.0360912), wk =   0.0055556
        k(  257) = (  -0.0833333   0.5292377   0.0000000), wk =   0.0055556
        k(  258) = (  -0.4166667   0.3367877   0.0000000), wk =   0.0055556
        k(  259) = (  -0.0833333   0.5292377  -0.2072182), wk =   0.0055556
        k(  260) = (   0.0833333  -0.5292377  -0.2072182), wk =   0.0055556
        k(  261) = (  -0.4166667   0.3367877   0.2072182), wk =   0.0055556
        k(  262) = (   0.4166667  -0.3367877   0.2072182), wk =   0.0055556
        k(  263) = (   0.4166667   0.3367877  -0.2072182), wk =   0.0055556
        k(  264) = (  -0.0833333   0.5292377  -0.4144365), wk =   0.0055556
        k(  265) = (   0.0833333  -0.5292377  -0.4144365), wk =   0.0055556
        k(  266) = (  -0.4166667   0.3367877   0.4144365), wk =   0.0055556
        k(  267) = (   0.4166667  -0.3367877   0.4144365), wk =   0.0055556
        k(  268) = (   0.4166667   0.3367877  -0.4144365), wk =   0.0055556
        k(  269) = (  -0.0833333   0.5292377  -0.6216547), wk =   0.0055556
        k(  270) = (   0.0833333  -0.5292377  -0.6216547), wk =   0.0055556
        k(  271) = (  -0.4166667   0.3367877   0.6216547), wk =   0.0055556
        k(  272) = (   0.4166667  -0.3367877   0.6216547), wk =   0.0055556
        k(  273) = (   0.4166667   0.3367877  -0.6216547), wk =   0.0055556
        k(  274) = (  -0.0833333   0.5292377  -0.8288730), wk =   0.0055556
        k(  275) = (   0.0833333  -0.5292377  -0.8288730), wk =   0.0055556
        k(  276) = (  -0.4166667   0.3367877   0.8288730), wk =   0.0055556
        k(  277) = (   0.4166667  -0.3367877   0.8288730), wk =   0.0055556
        k(  278) = (   0.4166667   0.3367877  -0.8288730), wk =   0.0055556
        k(  279) = (  -0.0833333   0.5292377   1.0360912), wk =   0.0055556
        k(  280) = (  -0.4166667   0.3367877  -1.0360912), wk =   0.0055556
        k(  281) = (  -0.1666667   0.2886751   0.0000000), wk =   0.0055556
        k(  282) = (  -0.1666667   0.2886751  -0.2072182), wk =   0.0055556
        k(  283) = (   0.1666667  -0.2886751  -0.2072182), wk =   0.0055556
        k(  284) = (   0.1666667   0.2886751  -0.2072182), wk =   0.0027778
        k(  285) = (  -0.1666667   0.2886751  -0.4144365), wk =   0.0055556
        k(  286) = (   0.1666667  -0.2886751  -0.4144365), wk =   0.0055556
        k(  287) = (   0.1666667   0.2886751  -0.4144365), wk =   0.0027778
        k(  288) = (  -0.1666667   0.2886751  -0.6216547), wk =   0.0055556
        k(  289) = (   0.1666667  -0.2886751  -0.6216547), wk =   0.0055556
        k(  290) = (   0.1666667   0.2886751  -0.6216547), wk =   0.0027778
        k(  291) = (  -0.1666667   0.2886751  -0.8288730), wk =   0.0055556
        k(  292) = (   0.1666667  -0.2886751  -0.8288730), wk =   0.0055556
        k(  293) = (   0.1666667   0.2886751  -0.8288730), wk =   0.0027778
        k(  294) = (  -0.1666667   0.2886751   1.0360912), wk =   0.0055556
        k(  295) = (  -0.1666667   0.3849002   0.0000000), wk =   0.0055556
        k(  296) = (  -0.2500000   0.3367877   0.0000000), wk =   0.0055556
        k(  297) = (  -0.1666667   0.3849002  -0.2072182), wk =   0.0055556
        k(  298) = (   0.1666667  -0.3849002  -0.2072182), wk =   0.0055556
        k(  299) = (  -0.2500000   0.3367877   0.2072182), wk =   0.0055556
        k(  300) = (   0.2500000  -0.3367877   0.2072182), wk =   0.0055556
        k(  301) = (   0.2500000   0.3367877  -0.2072182), wk =   0.0055556
        k(  302) = (  -0.1666667   0.3849002  -0.4144365), wk =   0.0055556
        k(  303) = (   0.1666667  -0.3849002  -0.4144365), wk =   0.0055556
        k(  304) = (  -0.2500000   0.3367877   0.4144365), wk =   0.0055556
        k(  305) = (   0.2500000  -0.3367877   0.4144365), wk =   0.0055556
        k(  306) = (   0.2500000   0.3367877  -0.4144365), wk =   0.0055556
        k(  307) = (  -0.1666667   0.3849002  -0.6216547), wk =   0.0055556
        k(  308) = (   0.1666667  -0.3849002  -0.6216547), wk =   0.0055556
        k(  309) = (  -0.2500000   0.3367877   0.6216547), wk =   0.0055556
        k(  310) = (   0.2500000  -0.3367877   0.6216547), wk =   0.0055556
        k(  311) = (   0.2500000   0.3367877  -0.6216547), wk =   0.0055556
        k(  312) = (  -0.1666667   0.3849002  -0.8288730), wk =   0.0055556
        k(  313) = (   0.1666667  -0.3849002  -0.8288730), wk =   0.0055556
        k(  314) = (  -0.2500000   0.3367877   0.8288730), wk =   0.0055556
        k(  315) = (   0.2500000  -0.3367877   0.8288730), wk =   0.0055556
        k(  316) = (   0.2500000   0.3367877  -0.8288730), wk =   0.0055556
        k(  317) = (  -0.1666667   0.3849002   1.0360912), wk =   0.0055556
        k(  318) = (  -0.2500000   0.3367877  -1.0360912), wk =   0.0055556
        k(  319) = (  -0.1666667   0.4811252   0.0000000), wk =   0.0055556
        k(  320) = (  -0.3333333   0.3849002   0.0000000), wk =   0.0055556
        k(  321) = (  -0.1666667   0.4811252  -0.2072182), wk =   0.0055556
        k(  322) = (   0.1666667  -0.4811252  -0.2072182), wk =   0.0055556
        k(  323) = (  -0.3333333   0.3849002   0.2072182), wk =   0.0055556
        k(  324) = (   0.3333333  -0.3849002   0.2072182), wk =   0.0055556
        k(  325) = (   0.3333333   0.3849002  -0.2072182), wk =   0.0055556
        k(  326) = (  -0.1666667   0.4811252  -0.4144365), wk =   0.0055556
        k(  327) = (   0.1666667  -0.4811252  -0.4144365), wk =   0.0055556
        k(  328) = (  -0.3333333   0.3849002   0.4144365), wk =   0.0055556
        k(  329) = (   0.3333333  -0.3849002   0.4144365), wk =   0.0055556
        k(  330) = (   0.3333333   0.3849002  -0.4144365), wk =   0.0055556
        k(  331) = (  -0.1666667   0.4811252  -0.6216547), wk =   0.0055556
        k(  332) = (   0.1666667  -0.4811252  -0.6216547), wk =   0.0055556
        k(  333) = (  -0.3333333   0.3849002   0.6216547), wk =   0.0055556
        k(  334) = (   0.3333333  -0.3849002   0.6216547), wk =   0.0055556
        k(  335) = (   0.3333333   0.3849002  -0.6216547), wk =   0.0055556
        k(  336) = (  -0.1666667   0.4811252  -0.8288730), wk =   0.0055556
        k(  337) = (   0.1666667  -0.4811252  -0.8288730), wk =   0.0055556
        k(  338) = (  -0.3333333   0.3849002   0.8288730), wk =   0.0055556
        k(  339) = (   0.3333333  -0.3849002   0.8288730), wk =   0.0055556
        k(  340) = (   0.3333333   0.3849002  -0.8288730), wk =   0.0055556
        k(  341) = (  -0.1666667   0.4811252   1.0360912), wk =   0.0055556
        k(  342) = (  -0.3333333   0.3849002  -1.0360912), wk =   0.0055556
        k(  343) = (  -0.4166667   0.4330127   0.0000000), wk =   0.0027778
        k(  344) = (   0.1666667  -0.5773503  -0.2072182), wk =   0.0055556
        k(  345) = (  -0.4166667   0.4330127   0.2072182), wk =   0.0027778
        k(  346) = (   0.4166667  -0.4330127   0.2072182), wk =   0.0027778
        k(  347) = (   0.1666667  -0.5773503  -0.4144365), wk =   0.0055556
        k(  348) = (  -0.4166667   0.4330127   0.4144365), wk =   0.0027778
        k(  349) = (   0.4166667  -0.4330127   0.4144365), wk =   0.0027778
        k(  350) = (   0.1666667  -0.5773503  -0.6216547), wk =   0.0055556
        k(  351) = (  -0.4166667   0.4330127   0.6216547), wk =   0.0027778
        k(  352) = (   0.4166667  -0.4330127   0.6216547), wk =   0.0027778
        k(  353) = (   0.1666667  -0.5773503  -0.8288730), wk =   0.0055556
        k(  354) = (  -0.4166667   0.4330127   0.8288730), wk =   0.0027778
        k(  355) = (   0.4166667  -0.4330127   0.8288730), wk =   0.0027778
        k(  356) = (  -0.4166667   0.4330127  -1.0360912), wk =   0.0027778
        k(  357) = (  -0.2500000   0.4330127   0.0000000), wk =   0.0055556
        k(  358) = (  -0.2500000   0.4330127  -0.2072182), wk =   0.0055556
        k(  359) = (   0.2500000  -0.4330127  -0.2072182), wk =   0.0055556
        k(  360) = (   0.2500000   0.4330127  -0.2072182), wk =   0.0027778
        k(  361) = (  -0.2500000   0.4330127  -0.4144365), wk =   0.0055556
        k(  362) = (   0.2500000  -0.4330127  -0.4144365), wk =   0.0055556
        k(  363) = (   0.2500000   0.4330127  -0.4144365), wk =   0.0027778
        k(  364) = (  -0.2500000   0.4330127  -0.6216547), wk =   0.0055556
        k(  365) = (   0.2500000  -0.4330127  -0.6216547), wk =   0.0055556
        k(  366) = (   0.2500000   0.4330127  -0.6216547), wk =   0.0027778
        k(  367) = (  -0.2500000   0.4330127  -0.8288730), wk =   0.0055556
        k(  368) = (   0.2500000  -0.4330127  -0.8288730), wk =   0.0055556
        k(  369) = (   0.2500000   0.4330127  -0.8288730), wk =   0.0027778
        k(  370) = (  -0.2500000   0.4330127   1.0360912), wk =   0.0055556
        k(  371) = (  -0.2500000   0.5292377   0.0000000), wk =   0.0055556
        k(  372) = (  -0.3333333   0.4811252   0.0000000), wk =   0.0055556
        k(  373) = (  -0.2500000   0.5292377  -0.2072182), wk =   0.0055556
        k(  374) = (   0.2500000  -0.5292377  -0.2072182), wk =   0.0055556
        k(  375) = (  -0.3333333   0.4811252   0.2072182), wk =   0.0055556
        k(  376) = (   0.3333333  -0.4811252   0.2072182), wk =   0.0055556
        k(  377) = (   0.3333333   0.4811252  -0.2072182), wk =   0.0055556
        k(  378) = (  -0.2500000   0.5292377  -0.4144365), wk =   0.0055556
        k(  379) = (   0.2500000  -0.5292377  -0.4144365), wk =   0.0055556
        k(  380) = (  -0.3333333   0.4811252   0.4144365), wk =   0.0055556
        k(  381) = (   0.3333333  -0.4811252   0.4144365), wk =   0.0055556
        k(  382) = (   0.3333333   0.4811252  -0.4144365), wk =   0.0055556
        k(  383) = (  -0.2500000   0.5292377  -0.6216547), wk =   0.0055556
        k(  384) = (   0.2500000  -0.5292377  -0.6216547), wk =   0.0055556
        k(  385) = (  -0.3333333   0.4811252   0.6216547), wk =   0.0055556
        k(  386) = (   0.3333333  -0.4811252   0.6216547), wk =   0.0055556
        k(  387) = (   0.3333333   0.4811252  -0.6216547), wk =   0.0055556
        k(  388) = (  -0.2500000   0.5292377  -0.8288730), wk =   0.0055556
        k(  389) = (   0.2500000  -0.5292377  -0.8288730), wk =   0.0055556
        k(  390) = (  -0.3333333   0.4811252   0.8288730), wk =   0.0055556
        k(  391) = (   0.3333333  -0.4811252   0.8288730), wk =   0.0055556
        k(  392) = (   0.3333333   0.4811252  -0.8288730), wk =   0.0055556
        k(  393) = (  -0.2500000   0.5292377   1.0360912), wk =   0.0055556
        k(  394) = (  -0.3333333   0.4811252  -1.0360912), wk =   0.0055556
        k(  395) = (   0.3333333  -0.5773503  -0.2072182), wk =   0.0027778
        k(  396) = (   0.3333333  -0.5773503  -0.4144365), wk =   0.0027778
        k(  397) = (   0.3333333  -0.5773503  -0.6216547), wk =   0.0027778
        k(  398) = (   0.3333333  -0.5773503  -0.8288730), wk =   0.0027778

                       cryst. coord.
        k(    1) = (   0.0000000   0.0000000   0.0000000), wk =   0.0013889
        k(    2) = (   0.0000000   0.0000000   0.1000000), wk =   0.0027778
        k(    3) = (   0.0000000   0.0000000   0.2000000), wk =   0.0027778
        k(    4) = (   0.0000000   0.0000000   0.3000000), wk =   0.0027778
        k(    5) = (   0.0000000   0.0000000   0.4000000), wk =   0.0027778
        k(    6) = (   0.0000000   0.0000000  -0.5000000), wk =   0.0013889
        k(    7) = (   0.0000000   0.0833333   0.0000000), wk =   0.0055556
        k(    8) = (   0.0000000   0.0833333   0.1000000), wk =   0.0055556
        k(    9) = (   0.0000000   0.0833333   0.2000000), wk =   0.0055556
        k(   10) = (   0.0000000   0.0833333   0.3000000), wk =   0.0055556
        k(   11) = (   0.0000000   0.0833333   0.4000000), wk =   0.0055556
        k(   12) = (   0.0000000   0.0833333  -0.5000000), wk =   0.0055556
        k(   13) = (   0.0000000   0.1666667   0.0000000), wk =   0.0055556
        k(   14) = (   0.0000000   0.1666667   0.1000000), wk =   0.0055556
        k(   15) = (   0.0000000   0.1666667   0.2000000), wk =   0.0055556
        k(   16) = (   0.0000000   0.1666667   0.3000000), wk =   0.0055556
        k(   17) = (   0.0000000   0.1666667   0.4000000), wk =   0.0055556
        k(   18) = (   0.0000000   0.1666667  -0.5000000), wk =   0.0055556
        k(   19) = (   0.0000000   0.2500000   0.0000000), wk =   0.0055556
        k(   20) = (   0.0000000   0.2500000   0.1000000), wk =   0.0055556
        k(   21) = (   0.0000000   0.2500000   0.2000000), wk =   0.0055556
        k(   22) = (   0.0000000   0.2500000   0.3000000), wk =   0.0055556
        k(   23) = (   0.0000000   0.2500000   0.4000000), wk =   0.0055556
        k(   24) = (   0.0000000   0.2500000  -0.5000000), wk =   0.0055556
        k(   25) = (   0.0000000   0.3333333   0.0000000), wk =   0.0055556
        k(   26) = (   0.0000000   0.3333333   0.1000000), wk =   0.0055556
        k(   27) = (   0.0000000   0.3333333   0.2000000), wk =   0.0055556
        k(   28) = (   0.0000000   0.3333333   0.3000000), wk =   0.0055556
        k(   29) = (   0.0000000   0.3333333   0.4000000), wk =   0.0055556
        k(   30) = (   0.0000000   0.3333333  -0.5000000), wk =   0.0055556
        k(   31) = (   0.0000000   0.4166667   0.0000000), wk =   0.0055556
        k(   32) = (   0.0000000   0.4166667   0.1000000), wk =   0.0055556
        k(   33) = (   0.0000000   0.4166667   0.2000000), wk =   0.0055556
        k(   34) = (   0.0000000   0.4166667   0.3000000), wk =   0.0055556
        k(   35) = (   0.0000000   0.4166667   0.4000000), wk =   0.0055556
        k(   36) = (   0.0000000   0.4166667  -0.5000000), wk =   0.0055556
        k(   37) = (   0.0000000  -0.5000000   0.0000000), wk =   0.0027778
        k(   38) = (   0.0000000  -0.5000000   0.1000000), wk =   0.0055556
        k(   39) = (   0.0000000  -0.5000000   0.2000000), wk =   0.0055556
        k(   40) = (   0.0000000  -0.5000000   0.3000000), wk =   0.0055556
        k(   41) = (   0.0000000  -0.5000000   0.4000000), wk =   0.0055556
        k(   42) = (   0.0000000  -0.5000000  -0.5000000), wk =   0.0027778
        k(   43) = (   0.0833333   0.0833333   0.0000000), wk =   0.0027778
        k(   44) = (   0.0833333   0.0833333   0.1000000), wk =   0.0027778
        k(   45) = (   0.0833333   0.0833333   0.2000000), wk =   0.0027778
        k(   46) = (   0.0833333   0.0833333   0.3000000), wk =   0.0027778
        k(   47) = (   0.0833333   0.0833333   0.4000000), wk =   0.0027778
        k(   48) = (   0.0833333   0.0833333  -0.5000000), wk =   0.0027778
        k(   49) = (   0.0833333   0.1666667   0.0000000), wk =   0.0055556
        k(   50) = (   0.0833333   0.1666667   0.1000000), wk =   0.0055556
        k(   51) = (   0.0833333   0.1666667   0.2000000), wk =   0.0055556
        k(   52) = (   0.0833333   0.1666667   0.3000000), wk =   0.0055556
        k(   53) = (   0.0833333   0.1666667   0.4000000), wk =   0.0055556
        k(   54) = (   0.0833333   0.1666667  -0.5000000), wk =   0.0055556
        k(   55) = (   0.0833333   0.2500000   0.0000000), wk =   0.0055556
        k(   56) = (   0.0833333   0.2500000   0.1000000), wk =   0.0055556
        k(   57) = (   0.0833333   0.2500000   0.2000000), wk =   0.0055556
        k(   58) = (   0.0833333   0.2500000   0.3000000), wk =   0.0055556
        k(   59) = (   0.0833333   0.2500000   0.4000000), wk =   0.0055556
        k(   60) = (   0.0833333   0.2500000  -0.5000000), wk =   0.0055556
        k(   61) = (   0.0833333   0.3333333   0.0000000), wk =   0.0055556
        k(   62) = (   0.0833333   0.3333333   0.1000000), wk =   0.0055556
        k(   63) = (   0.0833333   0.3333333   0.2000000), wk =   0.0055556
        k(   64) = (   0.0833333   0.3333333   0.3000000), wk =   0.0055556
        k(   65) = (   0.0833333   0.3333333   0.4000000), wk =   0.0055556
        k(   66) = (   0.0833333   0.3333333  -0.5000000), wk =   0.0055556
        k(   67) = (   0.0833333   0.4166667   0.0000000), wk =   0.0055556
        k(   68) = (   0.0833333   0.4166667   0.1000000), wk =   0.0055556
        k(   69) = (   0.0833333   0.4166667   0.2000000), wk =   0.0055556
        k(   70) = (   0.0833333   0.4166667   0.3000000), wk =   0.0055556
        k(   71) = (   0.0833333   0.4166667   0.4000000), wk =   0.0055556
        k(   72) = (   0.0833333   0.4166667  -0.5000000), wk =   0.0055556
        k(   73) = (   0.1666667   0.1666667   0.0000000), wk =   0.0027778
        k(   74) = (   0.1666667   0.1666667   0.1000000), wk =   0.0027778
        k(   75) = (   0.1666667   0.1666667   0.2000000), wk =   0.0027778
        k(   76) = (   0.1666667   0.1666667   0.3000000), wk =   0.0027778
        k(   77) = (   0.1666667   0.1666667   0.4000000), wk =   0.0027778
        k(   78) = (   0.1666667   0.1666667  -0.5000000), wk =   0.0027778
        k(   79) = (   0.1666667   0.2500000   0.0000000), wk =   0.0055556
        k(   80) = (   0.1666667   0.2500000   0.1000000), wk =   0.0055556
        k(   81) = (   0.1666667   0.2500000   0.2000000), wk =   0.0055556
        k(   82) = (   0.1666667   0.2500000   0.3000000), wk =   0.0055556
        k(   83) = (   0.1666667   0.2500000   0.4000000), wk =   0.0055556
        k(   84) = (   0.1666667   0.2500000  -0.5000000), wk =   0.0055556
        k(   85) = (   0.1666667   0.3333333   0.0000000), wk =   0.0055556
        k(   86) = (   0.1666667   0.3333333   0.1000000), wk =   0.0055556
        k(   87) = (   0.1666667   0.3333333   0.2000000), wk =   0.0055556
        k(   88) = (   0.1666667   0.3333333   0.3000000), wk =   0.0055556
        k(   89) = (   0.1666667   0.3333333   0.4000000), wk =   0.0055556
        k(   90) = (   0.1666667   0.3333333  -0.5000000), wk =   0.0055556
        k(   91) = (   0.1666667   0.4166667   0.0000000), wk =   0.0055556
        k(   92) = (   0.1666667   0.4166667   0.1000000), wk =   0.0055556
        k(   93) = (   0.1666667   0.4166667   0.2000000), wk =   0.0055556
        k(   94) = (   0.1666667   0.4166667   0.3000000), wk =   0.0055556
        k(   95) = (   0.1666667   0.4166667   0.4000000), wk =   0.0055556
        k(   96) = (   0.1666667   0.4166667  -0.5000000), wk =   0.0055556
        k(   97) = (   0.2500000   0.2500000   0.0000000), wk =   0.0027778
        k(   98) = (   0.2500000   0.2500000   0.1000000), wk =   0.0027778
        k(   99) = (   0.2500000   0.2500000   0.2000000), wk =   0.0027778
        k(  100) = (   0.2500000   0.2500000   0.3000000), wk =   0.0027778
        k(  101) = (   0.2500000   0.2500000   0.4000000), wk =   0.0027778
        k(  102) = (   0.2500000   0.2500000  -0.5000000), wk =   0.0027778
        k(  103) = (   0.2500000   0.3333333   0.0000000), wk =   0.0055556
        k(  104) = (   0.2500000   0.3333333   0.1000000), wk =   0.0055556
        k(  105) = (   0.2500000   0.3333333   0.2000000), wk =   0.0055556
        k(  106) = (   0.2500000   0.3333333   0.3000000), wk =   0.0055556
        k(  107) = (   0.2500000   0.3333333   0.4000000), wk =   0.0055556
        k(  108) = (   0.2500000   0.3333333  -0.5000000), wk =   0.0055556
        k(  109) = (   0.3333333   0.3333333   0.0000000), wk =   0.0027778
        k(  110) = (   0.3333333   0.3333333   0.1000000), wk =   0.0027778
        k(  111) = (   0.3333333   0.3333333   0.2000000), wk =   0.0027778
        k(  112) = (   0.3333333   0.3333333   0.3000000), wk =   0.0027778
        k(  113) = (   0.3333333   0.3333333   0.4000000), wk =   0.0027778
        k(  114) = (   0.3333333   0.3333333  -0.5000000), wk =   0.0027778
        k(  115) = (  -0.0833333   0.0833333   0.0000000), wk =   0.0027778
        k(  116) = (   0.0000000   0.0833333  -0.1000000), wk =   0.0055556
        k(  117) = (  -0.0833333   0.0833333   0.1000000), wk =   0.0055556
        k(  118) = (   0.0000000   0.0833333  -0.2000000), wk =   0.0055556
        k(  119) = (  -0.0833333   0.0833333   0.2000000), wk =   0.0055556
        k(  120) = (   0.0000000   0.0833333  -0.3000000), wk =   0.0055556
        k(  121) = (  -0.0833333   0.0833333   0.3000000), wk =   0.0055556
        k(  122) = (   0.0000000   0.0833333  -0.4000000), wk =   0.0055556
        k(  123) = (  -0.0833333   0.0833333   0.4000000), wk =   0.0055556
        k(  124) = (  -0.0833333   0.0833333  -0.5000000), wk =   0.0027778
        k(  125) = (  -0.1666667   0.1666667   0.0000000), wk =   0.0027778
        k(  126) = (   0.0000000   0.1666667  -0.1000000), wk =   0.0055556
        k(  127) = (  -0.1666667   0.1666667   0.1000000), wk =   0.0055556
        k(  128) = (   0.0000000   0.1666667  -0.2000000), wk =   0.0055556
        k(  129) = (  -0.1666667   0.1666667   0.2000000), wk =   0.0055556
        k(  130) = (   0.0000000   0.1666667  -0.3000000), wk =   0.0055556
        k(  131) = (  -0.1666667   0.1666667   0.3000000), wk =   0.0055556
        k(  132) = (   0.0000000   0.1666667  -0.4000000), wk =   0.0055556
        k(  133) = (  -0.1666667   0.1666667   0.4000000), wk =   0.0055556
        k(  134) = (  -0.1666667   0.1666667  -0.5000000), wk =   0.0027778
        k(  135) = (  -0.2500000   0.2500000   0.0000000), wk =   0.0027778
        k(  136) = (   0.0000000   0.2500000  -0.1000000), wk =   0.0055556
        k(  137) = (  -0.2500000   0.2500000   0.1000000), wk =   0.0055556
        k(  138) = (   0.0000000   0.2500000  -0.2000000), wk =   0.0055556
        k(  139) = (  -0.2500000   0.2500000   0.2000000), wk =   0.0055556
        k(  140) = (   0.0000000   0.2500000  -0.3000000), wk =   0.0055556
        k(  141) = (  -0.2500000   0.2500000   0.3000000), wk =   0.0055556
        k(  142) = (   0.0000000   0.2500000  -0.4000000), wk =   0.0055556
        k(  143) = (  -0.2500000   0.2500000   0.4000000), wk =   0.0055556
        k(  144) = (  -0.2500000   0.2500000  -0.5000000), wk =   0.0027778
        k(  145) = (  -0.3333333   0.3333333   0.0000000), wk =   0.0027778
        k(  146) = (   0.0000000   0.3333333  -0.1000000), wk =   0.0055556
        k(  147) = (  -0.3333333   0.3333333   0.1000000), wk =   0.0055556
        k(  148) = (   0.0000000   0.3333333  -0.2000000), wk =   0.0055556
        k(  149) = (  -0.3333333   0.3333333   0.2000000), wk =   0.0055556
        k(  150) = (   0.0000000   0.3333333  -0.3000000), wk =   0.0055556
        k(  151) = (  -0.3333333   0.3333333   0.3000000), wk =   0.0055556
        k(  152) = (   0.0000000   0.3333333  -0.4000000), wk =   0.0055556
        k(  153) = (  -0.3333333   0.3333333   0.4000000), wk =   0.0055556
        k(  154) = (  -0.3333333   0.3333333  -0.5000000), wk =   0.0027778
        k(  155) = (  -0.4166667   0.4166667   0.0000000), wk =   0.0027778
        k(  156) = (   0.0000000   0.4166667  -0.1000000), wk =   0.0055556
        k(  157) = (  -0.4166667   0.4166667   0.1000000), wk =   0.0055556
        k(  158) = (   0.0000000   0.4166667  -0.2000000), wk =   0.0055556
        k(  159) = (  -0.4166667   0.4166667   0.2000000), wk =   0.0055556
        k(  160) = (   0.0000000   0.4166667  -0.3000000), wk =   0.0055556
        k(  161) = (  -0.4166667   0.4166667   0.3000000), wk =   0.0055556
        k(  162) = (   0.0000000   0.4166667  -0.4000000), wk =   0.0055556
        k(  163) = (  -0.4166667   0.4166667   0.4000000), wk =   0.0055556
        k(  164) = (  -0.4166667   0.4166667  -0.5000000), wk =   0.0027778
        k(  165) = (   0.5000000  -0.5000000   0.0000000), wk =   0.0013889
        k(  166) = (   0.5000000  -0.5000000   0.1000000), wk =   0.0027778
        k(  167) = (   0.5000000  -0.5000000   0.2000000), wk =   0.0027778
        k(  168) = (   0.5000000  -0.5000000   0.3000000), wk =   0.0027778
        k(  169) = (   0.5000000  -0.5000000   0.4000000), wk =   0.0027778
        k(  170) = (   0.5000000  -0.5000000  -0.5000000), wk =   0.0013889
        k(  171) = (  -0.0833333   0.1666667   0.0000000), wk =   0.0055556
        k(  172) = (  -0.0833333   0.1666667  -0.1000000), wk =   0.0055556
        k(  173) = (   0.0833333  -0.1666667  -0.1000000), wk =   0.0055556
        k(  174) = (   0.0833333   0.0833333  -0.1000000), wk =   0.0027778
        k(  175) = (  -0.0833333   0.1666667  -0.2000000), wk =   0.0055556
        k(  176) = (   0.0833333  -0.1666667  -0.2000000), wk =   0.0055556
        k(  177) = (   0.0833333   0.0833333  -0.2000000), wk =   0.0027778
        k(  178) = (  -0.0833333   0.1666667  -0.3000000), wk =   0.0055556
        k(  179) = (   0.0833333  -0.1666667  -0.3000000), wk =   0.0055556
        k(  180) = (   0.0833333   0.0833333  -0.3000000), wk =   0.0027778
        k(  181) = (  -0.0833333   0.1666667  -0.4000000), wk =   0.0055556
        k(  182) = (   0.0833333  -0.1666667  -0.4000000), wk =   0.0055556
        k(  183) = (   0.0833333   0.0833333  -0.4000000), wk =   0.0027778
        k(  184) = (  -0.0833333   0.1666667   0.5000000), wk =   0.0055556
        k(  185) = (  -0.0833333   0.2500000   0.0000000), wk =   0.0055556
        k(  186) = (  -0.1666667   0.2500000   0.0000000), wk =   0.0055556
        k(  187) = (  -0.0833333   0.2500000  -0.1000000), wk =   0.0055556
        k(  188) = (   0.0833333  -0.2500000  -0.1000000), wk =   0.0055556
        k(  189) = (  -0.1666667   0.2500000   0.1000000), wk =   0.0055556
        k(  190) = (   0.1666667  -0.2500000   0.1000000), wk =   0.0055556
        k(  191) = (   0.1666667   0.0833333  -0.1000000), wk =   0.0055556
        k(  192) = (  -0.0833333   0.2500000  -0.2000000), wk =   0.0055556
        k(  193) = (   0.0833333  -0.2500000  -0.2000000), wk =   0.0055556
        k(  194) = (  -0.1666667   0.2500000   0.2000000), wk =   0.0055556
        k(  195) = (   0.1666667  -0.2500000   0.2000000), wk =   0.0055556
        k(  196) = (   0.1666667   0.0833333  -0.2000000), wk =   0.0055556
        k(  197) = (  -0.0833333   0.2500000  -0.3000000), wk =   0.0055556
        k(  198) = (   0.0833333  -0.2500000  -0.3000000), wk =   0.0055556
        k(  199) = (  -0.1666667   0.2500000   0.3000000), wk =   0.0055556
        k(  200) = (   0.1666667  -0.2500000   0.3000000), wk =   0.0055556
        k(  201) = (   0.1666667   0.0833333  -0.3000000), wk =   0.0055556
        k(  202) = (  -0.0833333   0.2500000  -0.4000000), wk =   0.0055556
        k(  203) = (   0.0833333  -0.2500000  -0.4000000), wk =   0.0055556
        k(  204) = (  -0.1666667   0.2500000   0.4000000), wk =   0.0055556
        k(  205) = (   0.1666667  -0.2500000   0.4000000), wk =   0.0055556
        k(  206) = (   0.1666667   0.0833333  -0.4000000), wk =   0.0055556
        k(  207) = (  -0.0833333   0.2500000   0.5000000), wk =   0.0055556
        k(  208) = (  -0.1666667   0.2500000  -0.5000000), wk =   0.0055556
        k(  209) = (  -0.0833333   0.3333333   0.0000000), wk =   0.0055556
        k(  210) = (  -0.2500000   0.3333333   0.0000000), wk =   0.0055556
        k(  211) = (  -0.0833333   0.3333333  -0.1000000), wk =   0.0055556
        k(  212) = (   0.0833333  -0.3333333  -0.1000000), wk =   0.0055556
        k(  213) = (  -0.2500000   0.3333333   0.1000000), wk =   0.0055556
        k(  214) = (   0.2500000  -0.3333333   0.1000000), wk =   0.0055556
        k(  215) = (   0.2500000   0.0833333  -0.1000000), wk =   0.0055556
        k(  216) = (  -0.0833333   0.3333333  -0.2000000), wk =   0.0055556
        k(  217) = (   0.0833333  -0.3333333  -0.2000000), wk =   0.0055556
        k(  218) = (  -0.2500000   0.3333333   0.2000000), wk =   0.0055556
        k(  219) = (   0.2500000  -0.3333333   0.2000000), wk =   0.0055556
        k(  220) = (   0.2500000   0.0833333  -0.2000000), wk =   0.0055556
        k(  221) = (  -0.0833333   0.3333333  -0.3000000), wk =   0.0055556
        k(  222) = (   0.0833333  -0.3333333  -0.3000000), wk =   0.0055556
        k(  223) = (  -0.2500000   0.3333333   0.3000000), wk =   0.0055556
        k(  224) = (   0.2500000  -0.3333333   0.3000000), wk =   0.0055556
        k(  225) = (   0.2500000   0.0833333  -0.3000000), wk =   0.0055556
        k(  226) = (  -0.0833333   0.3333333  -0.4000000), wk =   0.0055556
        k(  227) = (   0.0833333  -0.3333333  -0.4000000), wk =   0.0055556
        k(  228) = (  -0.2500000   0.3333333   0.4000000), wk =   0.0055556
        k(  229) = (   0.2500000  -0.3333333   0.4000000), wk =   0.0055556
        k(  230) = (   0.2500000   0.0833333  -0.4000000), wk =   0.0055556
        k(  231) = (  -0.0833333   0.3333333   0.5000000), wk =   0.0055556
        k(  232) = (  -0.2500000   0.3333333  -0.5000000), wk =   0.0055556
        k(  233) = (  -0.0833333   0.4166667   0.0000000), wk =   0.0055556
        k(  234) = (  -0.3333333   0.4166667   0.0000000), wk =   0.0055556
        k(  235) = (  -0.0833333   0.4166667  -0.1000000), wk =   0.0055556
        k(  236) = (   0.0833333  -0.4166667  -0.1000000), wk =   0.0055556
        k(  237) = (  -0.3333333   0.4166667   0.1000000), wk =   0.0055556
        k(  238) = (   0.3333333  -0.4166667   0.1000000), wk =   0.0055556
        k(  239) = (   0.3333333   0.0833333  -0.1000000), wk =   0.0055556
        k(  240) = (  -0.0833333   0.4166667  -0.2000000), wk =   0.0055556
        k(  241) = (   0.0833333  -0.4166667  -0.2000000), wk =   0.0055556
        k(  242) = (  -0.3333333   0.4166667   0.2000000), wk =   0.0055556
        k(  243) = (   0.3333333  -0.4166667   0.2000000), wk =   0.0055556
        k(  244) = (   0.3333333   0.0833333  -0.2000000), wk =   0.0055556
        k(  245) = (  -0.0833333   0.4166667  -0.3000000), wk =   0.0055556
        k(  246) = (   0.0833333  -0.4166667  -0.3000000), wk =   0.0055556
        k(  247) = (  -0.3333333   0.4166667   0.3000000), wk =   0.0055556
        k(  248) = (   0.3333333  -0.4166667   0.3000000), wk =   0.0055556
        k(  249) = (   0.3333333   0.0833333  -0.3000000), wk =   0.0055556
        k(  250) = (  -0.0833333   0.4166667  -0.4000000), wk =   0.0055556
        k(  251) = (   0.0833333  -0.4166667  -0.4000000), wk =   0.0055556
        k(  252) = (  -0.3333333   0.4166667   0.4000000), wk =   0.0055556
        k(  253) = (   0.3333333  -0.4166667   0.4000000), wk =   0.0055556
        k(  254) = (   0.3333333   0.0833333  -0.4000000), wk =   0.0055556
        k(  255) = (  -0.0833333   0.4166667   0.5000000), wk =   0.0055556
        k(  256) = (  -0.3333333   0.4166667  -0.5000000), wk =   0.0055556
        k(  257) = (  -0.0833333   0.5000000   0.0000000), wk =   0.0055556
        k(  258) = (  -0.4166667   0.5000000   0.0000000), wk =   0.0055556
        k(  259) = (  -0.0833333   0.5000000  -0.1000000), wk =   0.0055556
        k(  260) = (   0.0833333  -0.5000000  -0.1000000), wk =   0.0055556
        k(  261) = (  -0.4166667   0.5000000   0.1000000), wk =   0.0055556
        k(  262) = (   0.4166667  -0.5000000   0.1000000), wk =   0.0055556
        k(  263) = (   0.4166667   0.0833333  -0.1000000), wk =   0.0055556
        k(  264) = (  -0.0833333   0.5000000  -0.2000000), wk =   0.0055556
        k(  265) = (   0.0833333  -0.5000000  -0.2000000), wk =   0.0055556
        k(  266) = (  -0.4166667   0.5000000   0.2000000), wk =   0.0055556
        k(  267) = (   0.4166667  -0.5000000   0.2000000), wk =   0.0055556
        k(  268) = (   0.4166667   0.0833333  -0.2000000), wk =   0.0055556
        k(  269) = (  -0.0833333   0.5000000  -0.3000000), wk =   0.0055556
        k(  270) = (   0.0833333  -0.5000000  -0.3000000), wk =   0.0055556
        k(  271) = (  -0.4166667   0.5000000   0.3000000), wk =   0.0055556
        k(  272) = (   0.4166667  -0.5000000   0.3000000), wk =   0.0055556
        k(  273) = (   0.4166667   0.0833333  -0.3000000), wk =   0.0055556
        k(  274) = (  -0.0833333   0.5000000  -0.4000000), wk =   0.0055556
        k(  275) = (   0.0833333  -0.5000000  -0.4000000), wk =   0.0055556
        k(  276) = (  -0.4166667   0.5000000   0.4000000), wk =   0.0055556
        k(  277) = (   0.4166667  -0.5000000   0.4000000), wk =   0.0055556
        k(  278) = (   0.4166667   0.0833333  -0.4000000), wk =   0.0055556
        k(  279) = (  -0.0833333   0.5000000   0.5000000), wk =   0.0055556
        k(  280) = (  -0.4166667   0.5000000  -0.5000000), wk =   0.0055556
        k(  281) = (  -0.1666667   0.3333333   0.0000000), wk =   0.0055556
        k(  282) = (  -0.1666667   0.3333333  -0.1000000), wk =   0.0055556
        k(  283) = (   0.1666667  -0.3333333  -0.1000000), wk =   0.0055556
        k(  284) = (   0.1666667   0.1666667  -0.1000000), wk =   0.0027778
        k(  285) = (  -0.1666667   0.3333333  -0.2000000), wk =   0.0055556
        k(  286) = (   0.1666667  -0.3333333  -0.2000000), wk =   0.0055556
        k(  287) = (   0.1666667   0.1666667  -0.2000000), wk =   0.0027778
        k(  288) = (  -0.1666667   0.3333333  -0.3000000), wk =   0.0055556
        k(  289) = (   0.1666667  -0.3333333  -0.3000000), wk =   0.0055556
        k(  290) = (   0.1666667   0.1666667  -0.3000000), wk =   0.0027778
        k(  291) = (  -0.1666667   0.3333333  -0.4000000), wk =   0.0055556
        k(  292) = (   0.1666667  -0.3333333  -0.4000000), wk =   0.0055556
        k(  293) = (   0.1666667   0.1666667  -0.4000000), wk =   0.0027778
        k(  294) = (  -0.1666667   0.3333333   0.5000000), wk =   0.0055556
        k(  295) = (  -0.1666667   0.4166667   0.0000000), wk =   0.0055556
        k(  296) = (  -0.2500000   0.4166667   0.0000000), wk =   0.0055556
        k(  297) = (  -0.1666667   0.4166667  -0.1000000), wk =   0.0055556
        k(  298) = (   0.1666667  -0.4166667  -0.1000000), wk =   0.0055556
        k(  299) = (  -0.2500000   0.4166667   0.1000000), wk =   0.0055556
        k(  300) = (   0.2500000  -0.4166667   0.1000000), wk =   0.0055556
        k(  301) = (   0.2500000   0.1666667  -0.1000000), wk =   0.0055556
        k(  302) = (  -0.1666667   0.4166667  -0.2000000), wk =   0.0055556
        k(  303) = (   0.1666667  -0.4166667  -0.2000000), wk =   0.0055556
        k(  304) = (  -0.2500000   0.4166667   0.2000000), wk =   0.0055556
        k(  305) = (   0.2500000  -0.4166667   0.2000000), wk =   0.0055556
        k(  306) = (   0.2500000   0.1666667  -0.2000000), wk =   0.0055556
        k(  307) = (  -0.1666667   0.4166667  -0.3000000), wk =   0.0055556
        k(  308) = (   0.1666667  -0.4166667  -0.3000000), wk =   0.0055556
        k(  309) = (  -0.2500000   0.4166667   0.3000000), wk =   0.0055556
        k(  310) = (   0.2500000  -0.4166667   0.3000000), wk =   0.0055556
        k(  311) = (   0.2500000   0.1666667  -0.3000000), wk =   0.0055556
        k(  312) = (  -0.1666667   0.4166667  -0.4000000), wk =   0.0055556
        k(  313) = (   0.1666667  -0.4166667  -0.4000000), wk =   0.0055556
        k(  314) = (  -0.2500000   0.4166667   0.4000000), wk =   0.0055556
        k(  315) = (   0.2500000  -0.4166667   0.4000000), wk =   0.0055556
        k(  316) = (   0.2500000   0.1666667  -0.4000000), wk =   0.0055556
        k(  317) = (  -0.1666667   0.4166667   0.5000000), wk =   0.0055556
        k(  318) = (  -0.2500000   0.4166667  -0.5000000), wk =   0.0055556
        k(  319) = (  -0.1666667   0.5000000   0.0000000), wk =   0.0055556
        k(  320) = (  -0.3333333   0.5000000   0.0000000), wk =   0.0055556
        k(  321) = (  -0.1666667   0.5000000  -0.1000000), wk =   0.0055556
        k(  322) = (   0.1666667  -0.5000000  -0.1000000), wk =   0.0055556
        k(  323) = (  -0.3333333   0.5000000   0.1000000), wk =   0.0055556
        k(  324) = (   0.3333333  -0.5000000   0.1000000), wk =   0.0055556
        k(  325) = (   0.3333333   0.1666667  -0.1000000), wk =   0.0055556
        k(  326) = (  -0.1666667   0.5000000  -0.2000000), wk =   0.0055556
        k(  327) = (   0.1666667  -0.5000000  -0.2000000), wk =   0.0055556
        k(  328) = (  -0.3333333   0.5000000   0.2000000), wk =   0.0055556
        k(  329) = (   0.3333333  -0.5000000   0.2000000), wk =   0.0055556
        k(  330) = (   0.3333333   0.1666667  -0.2000000), wk =   0.0055556
        k(  331) = (  -0.1666667   0.5000000  -0.3000000), wk =   0.0055556
        k(  332) = (   0.1666667  -0.5000000  -0.3000000), wk =   0.0055556
        k(  333) = (  -0.3333333   0.5000000   0.3000000), wk =   0.0055556
        k(  334) = (   0.3333333  -0.5000000   0.3000000), wk =   0.0055556
        k(  335) = (   0.3333333   0.1666667  -0.3000000), wk =   0.0055556
        k(  336) = (  -0.1666667   0.5000000  -0.4000000), wk =   0.0055556
        k(  337) = (   0.1666667  -0.5000000  -0.4000000), wk =   0.0055556
        k(  338) = (  -0.3333333   0.5000000   0.4000000), wk =   0.0055556
        k(  339) = (   0.3333333  -0.5000000   0.4000000), wk =   0.0055556
        k(  340) = (   0.3333333   0.1666667  -0.4000000), wk =   0.0055556
        k(  341) = (  -0.1666667   0.5000000   0.5000000), wk =   0.0055556
        k(  342) = (  -0.3333333   0.5000000  -0.5000000), wk =   0.0055556
        k(  343) = (  -0.4166667   0.5833333   0.0000000), wk =   0.0027778
        k(  344) = (   0.1666667  -0.5833333  -0.1000000), wk =   0.0055556
        k(  345) = (  -0.4166667   0.5833333   0.1000000), wk =   0.0027778
        k(  346) = (   0.4166667  -0.5833333   0.1000000), wk =   0.0027778
        k(  347) = (   0.1666667  -0.5833333  -0.2000000), wk =   0.0055556
        k(  348) = (  -0.4166667   0.5833333   0.2000000), wk =   0.0027778
        k(  349) = (   0.4166667  -0.5833333   0.2000000), wk =   0.0027778
        k(  350) = (   0.1666667  -0.5833333  -0.3000000), wk =   0.0055556
        k(  351) = (  -0.4166667   0.5833333   0.3000000), wk =   0.0027778
        k(  352) = (   0.4166667  -0.5833333   0.3000000), wk =   0.0027778
        k(  353) = (   0.1666667  -0.5833333  -0.4000000), wk =   0.0055556
        k(  354) = (  -0.4166667   0.5833333   0.4000000), wk =   0.0027778
        k(  355) = (   0.4166667  -0.5833333   0.4000000), wk =   0.0027778
        k(  356) = (  -0.4166667   0.5833333  -0.5000000), wk =   0.0027778
        k(  357) = (  -0.2500000   0.5000000   0.0000000), wk =   0.0055556
        k(  358) = (  -0.2500000   0.5000000  -0.1000000), wk =   0.0055556
        k(  359) = (   0.2500000  -0.5000000  -0.1000000), wk =   0.0055556
        k(  360) = (   0.2500000   0.2500000  -0.1000000), wk =   0.0027778
        k(  361) = (  -0.2500000   0.5000000  -0.2000000), wk =   0.0055556
        k(  362) = (   0.2500000  -0.5000000  -0.2000000), wk =   0.0055556
        k(  363) = (   0.2500000   0.2500000  -0.2000000), wk =   0.0027778
        k(  364) = (  -0.2500000   0.5000000  -0.3000000), wk =   0.0055556
        k(  365) = (   0.2500000  -0.5000000  -0.3000000), wk =   0.0055556
        k(  366) = (   0.2500000   0.2500000  -0.3000000), wk =   0.0027778
        k(  367) = (  -0.2500000   0.5000000  -0.4000000), wk =   0.0055556
        k(  368) = (   0.2500000  -0.5000000  -0.4000000), wk =   0.0055556
        k(  369) = (   0.2500000   0.2500000  -0.4000000), wk =   0.0027778
        k(  370) = (  -0.2500000   0.5000000   0.5000000), wk =   0.0055556
        k(  371) = (  -0.2500000   0.5833333   0.0000000), wk =   0.0055556
        k(  372) = (  -0.3333333   0.5833333   0.0000000), wk =   0.0055556
        k(  373) = (  -0.2500000   0.5833333  -0.1000000), wk =   0.0055556
        k(  374) = (   0.2500000  -0.5833333  -0.1000000), wk =   0.0055556
        k(  375) = (  -0.3333333   0.5833333   0.1000000), wk =   0.0055556
        k(  376) = (   0.3333333  -0.5833333   0.1000000), wk =   0.0055556
        k(  377) = (   0.3333333   0.2500000  -0.1000000), wk =   0.0055556
        k(  378) = (  -0.2500000   0.5833333  -0.2000000), wk =   0.0055556
        k(  379) = (   0.2500000  -0.5833333  -0.2000000), wk =   0.0055556
        k(  380) = (  -0.3333333   0.5833333   0.2000000), wk =   0.0055556
        k(  381) = (   0.3333333  -0.5833333   0.2000000), wk =   0.0055556
        k(  382) = (   0.3333333   0.2500000  -0.2000000), wk =   0.0055556
        k(  383) = (  -0.2500000   0.5833333  -0.3000000), wk =   0.0055556
        k(  384) = (   0.2500000  -0.5833333  -0.3000000), wk =   0.0055556
        k(  385) = (  -0.3333333   0.5833333   0.3000000), wk =   0.0055556
        k(  386) = (   0.3333333  -0.5833333   0.3000000), wk =   0.0055556
        k(  387) = (   0.3333333   0.2500000  -0.3000000), wk =   0.0055556
        k(  388) = (  -0.2500000   0.5833333  -0.4000000), wk =   0.0055556
        k(  389) = (   0.2500000  -0.5833333  -0.4000000), wk =   0.0055556
        k(  390) = (  -0.3333333   0.5833333   0.4000000), wk =   0.0055556
        k(  391) = (   0.3333333  -0.5833333   0.4000000), wk =   0.0055556
        k(  392) = (   0.3333333   0.2500000  -0.4000000), wk =   0.0055556
        k(  393) = (  -0.2500000   0.5833333   0.5000000), wk =   0.0055556
        k(  394) = (  -0.3333333   0.5833333  -0.5000000), wk =   0.0055556
        k(  395) = (   0.3333333  -0.6666667  -0.1000000), wk =   0.0027778
        k(  396) = (   0.3333333  -0.6666667  -0.2000000), wk =   0.0027778
        k(  397) = (   0.3333333  -0.6666667  -0.3000000), wk =   0.0027778
        k(  398) = (   0.3333333  -0.6666667  -0.4000000), wk =   0.0027778

     Dense  grid:   150535 G-vectors     FFT dimensions: (  90,  90,  45)

     Smooth grid:    81833 G-vectors     FFT dimensions: (  75,  75,  36)

     Dynamical RAM for                 wfc:       4.38 MB

     Dynamical RAM for     wfc (w. buffer):    1745.62 MB

     Dynamical RAM for           str. fact:       3.45 MB

     Dynamical RAM for           local pot:       0.00 MB

     Dynamical RAM for          nlocal pot:      10.94 MB

     Dynamical RAM for                qrad:       4.57 MB

     Dynamical RAM for          rho,v,vnew:       7.71 MB

     Dynamical RAM for               rhoin:       2.57 MB

     Dynamical RAM for            rho*nmix:      18.38 MB

     Dynamical RAM for           G-vectors:       4.62 MB

     Dynamical RAM for          h,s,v(r/c):       0.57 MB

     Dynamical RAM for          <psi|beta>:       0.12 MB

     Dynamical RAM for                 psi:       8.75 MB

     Dynamical RAM for                hpsi:       8.75 MB

     Dynamical RAM for                spsi:       8.75 MB

     Dynamical RAM for      wfcinit/wfcrot:       8.82 MB

     Dynamical RAM for           addusdens:     220.51 MB

     Estimated static dynamical RAM per process >       1.75 GB

     Estimated max dynamical RAM per process >       1.98 GB

     Estimated total dynamical RAM >       3.96 GB

     Atomic positions and unit cell read from directory:
     ./tmp/Zr6NiTe2.save/


     Check: negative core charge=   -0.000002

     The initial density is read from file :
     ./tmp/Zr6NiTe2.save/charge-density


     negative rho (up, down):  3.714E-01 0.000E+00
     Starting wfcs are  102 randomized atomic wfcs

     total cpu time spent up to now is      860.9 secs

     Self-consistent Calculation

     iteration #  1     ecut=    60.00 Ry     beta= 0.40
     Davidson diagonalization with overlap

---- Real-time Memory Report at c_bands before calling an iterative solver
          1858 MiB given to the printing process from OS
             0 MiB allocation reported by mallinfo(arena+hblkhd)
          4415 MiB available memory on the node where the printing process lives
------------------
     c_bands:  1 eigenvalues not converged
     c_bands:  1 eigenvalues not converged
     c_bands:  1 eigenvalues not converged
     c_bands:  1 eigenvalues not converged
     c_bands:  1 eigenvalues not converged
     c_bands:  1 eigenvalues not converged
     c_bands:  1 eigenvalues not converged
     c_bands:  1 eigenvalues not converged
     c_bands:  1 eigenvalues not converged
     c_bands:  1 eigenvalues not converged
     c_bands:  1 eigenvalues not converged
     c_bands:  1 eigenvalues not converged
     c_bands:  1 eigenvalues not converged
     c_bands:  1 eigenvalues not converged
     c_bands:  1 eigenvalues not converged
     c_bands:  1 eigenvalues not converged
     c_bands:  1 eigenvalues not converged
     c_bands:  1 eigenvalues not converged
     c_bands:  1 eigenvalues not converged
     c_bands:  1 eigenvalues not converged
     c_bands:  1 eigenvalues not converged
     c_bands:  1 eigenvalues not converged
     c_bands:  1 eigenvalues not converged
     c_bands:  1 eigenvalues not converged
     c_bands:  1 eigenvalues not converged
     c_bands:  1 eigenvalues not converged
     c_bands:  1 eigenvalues not converged
     c_bands:  1 eigenvalues not converged
     c_bands:  1 eigenvalues not converged
     c_bands:  1 eigenvalues not converged
     c_bands:  1 eigenvalues not converged
     c_bands:  1 eigenvalues not converged
     c_bands:  1 eigenvalues not converged
     c_bands:  2 eigenvalues not converged
     c_bands:  1 eigenvalues not converged
     c_bands:  1 eigenvalues not converged
     c_bands:  1 eigenvalues not converged
     c_bands:  1 eigenvalues not converged
     c_bands:  1 eigenvalues not converged
     c_bands:  1 eigenvalues not converged
     c_bands:  1 eigenvalues not converged
     c_bands:  1 eigenvalues not converged
     c_bands:  1 eigenvalues not converged
     c_bands:  1 eigenvalues not converged
     c_bands:  1 eigenvalues not converged
     ethr =  1.00E-05,  avg # of iterations = 15.2

     Threshold (ethr) on eigenvalues was too large:
     Diagonalizing with lowered threshold

     Davidson diagonalization with overlap

---- Real-time Memory Report at c_bands before calling an iterative solver
          2070 MiB given to the printing process from OS
             0 MiB allocation reported by mallinfo(arena+hblkhd)
          3992 MiB available memory on the node where the printing process lives
------------------
     c_bands:  1 eigenvalues not converged
     c_bands:  1 eigenvalues not converged
     c_bands:  1 eigenvalues not converged
     c_bands:  1 eigenvalues not converged
     ethr =  6.52E-08,  avg # of iterations =  5.5

     negative rho (up, down):  3.714E-01 0.000E+00

     total cpu time spent up to now is     5629.2 secs

     total energy              =    -713.87804405 Ry
     estimated scf accuracy    <       0.00006281 Ry

     iteration #  2     ecut=    60.00 Ry     beta= 0.40
     Davidson diagonalization with overlap

---- Real-time Memory Report at c_bands before calling an iterative solver
          2076 MiB given to the printing process from OS
             0 MiB allocation reported by mallinfo(arena+hblkhd)
          3303 MiB available memory on the node where the printing process lives
------------------
     ethr =  6.68E-08,  avg # of iterations =  4.8

     negative rho (up, down):  3.714E-01 0.000E+00

     total cpu time spent up to now is     7262.3 secs

     total energy              =    -713.87800010 Ry
     estimated scf accuracy    <       0.00114324 Ry

     iteration #  3     ecut=    60.00 Ry     beta= 0.40
     Davidson diagonalization with overlap

---- Real-time Memory Report at c_bands before calling an iterative solver
          2077 MiB given to the printing process from OS
             0 MiB allocation reported by mallinfo(arena+hblkhd)
          2148 MiB available memory on the node where the printing process lives
------------------
     ethr =  6.68E-08,  avg # of iterations =  4.5

     negative rho (up, down):  3.714E-01 0.000E+00

     total cpu time spent up to now is     8444.3 secs

     total energy              =    -713.87807492 Ry
     estimated scf accuracy    <       0.00000825 Ry

     iteration #  4     ecut=    60.00 Ry     beta= 0.40
     Davidson diagonalization with overlap

---- Real-time Memory Report at c_bands before calling an iterative solver
          2079 MiB given to the printing process from OS
             0 MiB allocation reported by mallinfo(arena+hblkhd)
          2136 MiB available memory on the node where the printing process lives
------------------
     ethr =  8.78E-09,  avg # of iterations =  3.9

     negative rho (up, down):  3.714E-01 0.000E+00

     total cpu time spent up to now is     9594.5 secs

     total energy              =    -713.87807637 Ry
     estimated scf accuracy    <       0.00000144 Ry

     iteration #  5     ecut=    60.00 Ry     beta= 0.40
     Davidson diagonalization with overlap

---- Real-time Memory Report at c_bands before calling an iterative solver
          2080 MiB given to the printing process from OS
             0 MiB allocation reported by mallinfo(arena+hblkhd)
          2152 MiB available memory on the node where the printing process lives
------------------
     ethr =  1.54E-09,  avg # of iterations =  3.6

     negative rho (up, down):  3.714E-01 0.000E+00

     total cpu time spent up to now is    10841.6 secs

     total energy              =    -713.87807645 Ry
     estimated scf accuracy    <       0.00000163 Ry

     iteration #  6     ecut=    60.00 Ry     beta= 0.40
     Davidson diagonalization with overlap

---- Real-time Memory Report at c_bands before calling an iterative solver
          2081 MiB given to the printing process from OS
             0 MiB allocation reported by mallinfo(arena+hblkhd)
          2339 MiB available memory on the node where the printing process lives
------------------
     ethr =  1.54E-09,  avg # of iterations =  2.3

     negative rho (up, down):  3.714E-01 0.000E+00

     total cpu time spent up to now is    11851.9 secs

     End of self-consistent calculation

          k = 0.0000 0.0000 0.0000 ( 10193 PWs)   bands (ev):

   -35.2062 -35.1988 -35.1871 -34.8434 -34.8145 -34.8049 -13.5128 -13.3969
   -13.3915 -13.3013 -13.2482 -13.2189 -13.2156 -13.2040 -13.1965 -12.9831
   -12.9822 -12.9517 -12.8093 -12.7373 -12.7248 -12.7240 -12.7195 -12.7153
     0.6461   1.2970   7.9886   8.0023   9.1926   9.3130   9.3347  10.5590
    10.5979  11.3387  11.3471  11.4001  11.4022  11.4446  11.4486  11.6556
    11.8325  13.2904  13.2948  14.0441  14.0541  14.0719  14.1127  14.1178
    14.2121  14.7213  14.7432  15.0940  15.0966  15.1790  15.2706  15.7664

     occupation numbers 
     1.0000   1.0000   1.0000   1.0000   1.0000   1.0000   1.0000   1.0000
     1.0000   1.0000   1.0000   1.0000   1.0000   1.0000   1.0000   1.0000
     1.0000   1.0000   1.0000   1.0000   1.0000   1.0000   1.0000   1.0000
     1.0000   1.0000   1.0000   1.0000   1.0000   1.0000   1.0000   1.0000
     1.0000   1.0000   1.0000   1.0000   1.0000   1.0000   1.0000   1.0000
     1.0000   1.0000   1.0000   0.1121   0.0935   0.0662   0.0269   0.0238
     0.0015   0.0000   0.0000   0.0000   0.0000   0.0000   0.0000   0.0000

          k = 0.0000 0.0000 0.2072 ( 10193 PWs)   bands (ev):

   -35.2051 -35.1981 -35.1863 -34.8432 -34.8140 -34.8042 -13.5058 -13.3962
   -13.3907 -13.3071 -13.2451 -13.2442 -13.2382 -13.1999 -13.1945 -12.9704
   -12.9703 -12.9581 -12.8128 -12.7560 -12.7453 -12.7426 -12.7084 -12.7037
     0.7259   1.3178   8.0906   8.1036   9.2838   9.3035   9.3079  10.3164
    10.4807  11.0659  11.3182  11.3183  11.3568  11.3594  11.6561  11.6590
    12.1380  13.1975  13.2060  13.7663  13.7740  13.9974  14.1530  14.1720
    14.1725  14.6753  14.6787  15.0850  15.1262  15.3905  15.4038  15.8192

     occupation numbers 
     1.0000   1.0000   1.0000   1.0000   1.0000   1.0000   1.0000   1.0000
     1.0000   1.0000   1.0000   1.0000   1.0000   1.0000   1.0000   1.0000
     1.0000   1.0000   1.0000   1.0000   1.0000   1.0000   1.0000   1.0000
     1.0000   1.0000   1.0000   1.0000   1.0000   1.0000   1.0000   1.0000
     1.0000   1.0000   1.0000   1.0000   1.0000   1.0000   1.0000   1.0000
     1.0000   1.0000   1.0000   0.9528   0.9443   0.2327   0.0095   0.0055
     0.0054   0.0000   0.0000   0.0000   0.0000   0.0000   0.0000   0.0000

          k = 0.0000 0.0000 0.4144 ( 10223 PWs)   bands (ev):

   -35.2020 -35.1963 -35.1842 -34.8428 -34.8124 -34.8026 -13.4872 -13.3949
   -13.3895 -13.3285 -13.3015 -13.2980 -13.2232 -13.1892 -13.1846 -12.9798
   -12.9486 -12.9450 -12.8224 -12.7864 -12.7783 -12.7706 -12.7068 -12.7022
     0.9484   1.3739   8.3655   8.3765   9.2088   9.2228   9.4600   9.7252
     9.7578  11.0197  11.2916  11.2945  11.3786  11.3796  12.0499  12.0543
    12.3255  13.0872  13.0998  13.2946  13.3016  13.5794  13.9491  13.9537
    14.1394  14.8117  14.8124  14.8135  14.9684  15.7731  15.7802  16.0471

     occupation numbers 
     1.0000   1.0000   1.0000   1.0000   1.0000   1.0000   1.0000   1.0000
     1.0000   1.0000   1.0000   1.0000   1.0000   1.0000   1.0000   1.0000
     1.0000   1.0000   1.0000   1.0000   1.0000   1.0000   1.0000   1.0000
     1.0000   1.0000   1.0000   1.0000   1.0000   1.0000   1.0000   1.0000
[...]

          k =-0.3333 0.4811 0.6217 ( 10226 PWs)   bands (ev):

   -35.1969 -35.1950 -35.1820 -34.8435 -34.8101 -34.8000 -13.4427 -13.4248
   -13.3868 -13.3585 -13.3548 -13.3383 -13.1964 -13.1690 -13.1673 -13.0818
   -12.9288 -12.9241 -12.8363 -12.7788 -12.7707 -12.7636 -12.7524 -12.7417
     1.3482   1.3746   8.2693   8.4699   8.4819   9.2044   9.2185   9.4184
    10.3558  11.2442  11.2962  11.3069  11.5020  11.5074  12.1703  12.4526
    12.5318  12.8199  12.9839  13.1143  13.1726  13.2710  13.3130  13.7963
    14.3491  14.5005  15.1214  15.1835  15.5475  15.6665  15.7567  15.8036

     occupation numbers 
     1.0000   1.0000   1.0000   1.0000   1.0000   1.0000   1.0000   1.0000
     1.0000   1.0000   1.0000   1.0000   1.0000   1.0000   1.0000   1.0000
     1.0000   1.0000   1.0000   1.0000   1.0000   1.0000   1.0000   1.0000
     1.0000   1.0000   1.0000   1.0000   1.0000   1.0000   1.0000   1.0000
     1.0000   1.0000   1.0000   1.0000   1.0000   1.0000   1.0000   1.0000
     1.0000   1.0000   1.0000   1.0000   1.0000   1.0000   1.0000   0.9131
     0.0000   0.0000   0.0000   0.0000   0.0000   0.0000   0.0000   0.0000

          k = 0.3333-0.4811 0.6217 ( 10226 PWs)   bands (ev):

   -35.1969 -35.1950 -35.1820 -34.8435 -34.8101 -34.8000 -13.4429 -13.4251
   -13.3868 -13.3582 -13.3544 -13.3381 -13.1973 -13.1690 -13.1674 -13.0809
   -12.9291 -12.9242 -12.8363 -12.7794 -12.7716 -12.7637 -12.7512 -12.7415
     1.3482   1.3746   8.2708   8.4745   8.4865   9.1984   9.2128   9.4167
    10.3580  11.2443  11.2998  11.3092  11.5010  11.5068  12.1644  12.4492
    12.5290  12.8087  12.9838  13.1165  13.1636  13.2622  13.3147  13.8097
    14.3666  14.5135  15.1140  15.1805  15.5452  15.6707  15.7617  15.8140

     occupation numbers 
     1.0000   1.0000   1.0000   1.0000   1.0000   1.0000   1.0000   1.0000
     1.0000   1.0000   1.0000   1.0000   1.0000   1.0000   1.0000   1.0000
     1.0000   1.0000   1.0000   1.0000   1.0000   1.0000   1.0000   1.0000
     1.0000   1.0000   1.0000   1.0000   1.0000   1.0000   1.0000   1.0000
     1.0000   1.0000   1.0000   1.0000   1.0000   1.0000   1.0000   1.0000
     1.0000   1.0000   1.0000   1.0000   1.0000   1.0000   1.0000   0.8890
     0.0000   0.0000   0.0000   0.0000   0.0000   0.0000   0.0000   0.0000

          k = 0.3333 0.4811-0.6217 ( 10226 PWs)   bands (ev):

   -35.1961 -35.1958 -35.1819 -34.8436 -34.8099 -34.8002 -13.4396 -13.4289
   -13.3864 -13.3591 -13.3542 -13.3371 -13.1968 -13.1698 -13.1661 -13.0828
   -12.9329 -12.9194 -12.8363 -12.7831 -12.7666 -12.7609 -12.7526 -12.7443
     1.3469   1.3760   8.2684   8.4712   8.4816   9.2093   9.2143   9.4156
    10.3568  11.2517  11.2932  11.3015  11.5001  11.5088  12.1715  12.4555
    12.5312  12.8247  12.9886  13.1108  13.1637  13.2806  13.3087  13.7965
    14.3479  14.5010  15.1203  15.1752  15.5635  15.6602  15.7566  15.7933

     occupation numbers 
     1.0000   1.0000   1.0000   1.0000   1.0000   1.0000   1.0000   1.0000
     1.0000   1.0000   1.0000   1.0000   1.0000   1.0000   1.0000   1.0000
     1.0000   1.0000   1.0000   1.0000   1.0000   1.0000   1.0000   1.0000
     1.0000   1.0000   1.0000   1.0000   1.0000   1.0000   1.0000   1.0000
     1.0000   1.0000   1.0000   1.0000   1.0000   1.0000   1.0000   1.0000
     1.0000   1.0000   1.0000   1.0000   1.0000   1.0000   1.0000   0.9128
     0.0000   0.0000   0.0000   0.0000   0.0000   0.0000   0.0000   0.0000

          k =-0.2500 0.5292-0.8289 ( 10230 PWs)   bands (ev):

   -35.1943 -35.1931 -35.1796 -34.8422 -34.8089 -34.7989 -13.4336 -13.4224
   -13.4014 -13.3972 -13.3729 -13.3680 -13.2152 -13.1388 -13.1232 -13.0847
   -12.9596 -12.9543 -12.8425 -12.8044 -12.7804 -12.7607 -12.7552 -12.7460
     1.5267   1.5385   7.9838   8.1430   8.6542   9.1233   9.1683   9.3487
    10.5145  11.3177  11.3359  11.4890  11.4988  11.5162  12.0063  12.6303
    12.6812  12.7893  12.8286  12.9559  13.0074  13.1674  13.1886  13.5267
    14.4761  14.5853  15.2812  15.3579  15.7337  15.8365  15.9184  16.0052

     occupation numbers 
     1.0000   1.0000   1.0000   1.0000   1.0000   1.0000   1.0000   1.0000
     1.0000   1.0000   1.0000   1.0000   1.0000   1.0000   1.0000   1.0000
     1.0000   1.0000   1.0000   1.0000   1.0000   1.0000   1.0000   1.0000
     1.0000   1.0000   1.0000   1.0000   1.0000   1.0000   1.0000   1.0000
     1.0000   1.0000   1.0000   1.0000   1.0000   1.0000   1.0000   1.0000
     1.0000   1.0000   1.0000   1.0000   1.0000   1.0000   1.0000   1.0000
     0.0000   0.0000   0.0000   0.0000   0.0000   0.0000   0.0000   0.0000

          k = 0.2500-0.5292-0.8289 ( 10230 PWs)   bands (ev):

   -35.1943 -35.1931 -35.1796 -34.8422 -34.8089 -34.7989 -13.4332 -13.4219
   -13.4018 -13.3976 -13.3729 -13.3681 -13.2147 -13.1389 -13.1233 -13.0852
   -12.9594 -12.9541 -12.8425 -12.8043 -12.7798 -12.7613 -12.7551 -12.7462
     1.5267   1.5385   7.9825   8.1414   8.6529   9.1257   9.1701   9.3497
    10.5130  11.3145  11.3340  11.4895  11.4996  11.5161  12.0109  12.6317
    12.6847  12.7979  12.8300  12.9567  13.0148  13.1641  13.1887  13.5170
    14.4671  14.5781  15.2863  15.3608  15.7257  15.8362  15.9186  16.0048

     occupation numbers 
     1.0000   1.0000   1.0000   1.0000   1.0000   1.0000   1.0000   1.0000
     1.0000   1.0000   1.0000   1.0000   1.0000   1.0000   1.0000   1.0000
     1.0000   1.0000   1.0000   1.0000   1.0000   1.0000   1.0000   1.0000
     1.0000   1.0000   1.0000   1.0000   1.0000   1.0000   1.0000   1.0000
     1.0000   1.0000   1.0000   1.0000   1.0000   1.0000   1.0000   1.0000
     1.0000   1.0000   1.0000   1.0000   1.0000   1.0000   1.0000   1.0000
     0.0000   0.0000   0.0000   0.0000   0.0000   0.0000   0.0000   0.0000

          k =-0.3333 0.4811 0.8289 ( 10230 PWs)   bands (ev):

   -35.1945 -35.1928 -35.1796 -34.8422 -34.8089 -34.7989 -13.4347 -13.4202
   -13.4016 -13.3975 -13.3737 -13.3681 -13.2151 -13.1356 -13.1268 -13.0845
   -12.9614 -12.9518 -12.8425 -12.8004 -12.7848 -12.7656 -12.7507 -12.7456
     1.5265   1.5386   7.9838   8.1396   8.6529   9.1263   9.1714   9.3495
    10.5132  11.3091  11.3384  11.4897  11.5020  11.5149  12.0097  12.6279
    12.6870  12.7973  12.8268  12.9617  13.0122  13.1729  13.1802  13.5183
    14.4643  14.5802  15.2907  15.3614  15.7201  15.8386  15.9228  16.0047

     occupation numbers 
     1.0000   1.0000   1.0000   1.0000   1.0000   1.0000   1.0000   1.0000
     1.0000   1.0000   1.0000   1.0000   1.0000   1.0000   1.0000   1.0000
     1.0000   1.0000   1.0000   1.0000   1.0000   1.0000   1.0000   1.0000
     1.0000   1.0000   1.0000   1.0000   1.0000   1.0000   1.0000   1.0000
     1.0000   1.0000   1.0000   1.0000   1.0000   1.0000   1.0000   1.0000
     1.0000   1.0000   1.0000   1.0000   1.0000   1.0000   1.0000   1.0000
     0.0000   0.0000   0.0000   0.0000   0.0000   0.0000   0.0000   0.0000

          k = 0.3333-0.4811 0.8289 ( 10230 PWs)   bands (ev):

   -35.1945 -35.1928 -35.1796 -34.8422 -34.8089 -34.7989 -13.4350 -13.4207
   -13.4012 -13.3969 -13.3737 -13.3680 -13.2155 -13.1355 -13.1267 -13.0841
   -12.9615 -12.9520 -12.8425 -12.8005 -12.7851 -12.7655 -12.7505 -12.7454
     1.5265   1.5386   7.9852   8.1412   8.6542   9.1238   9.1695   9.3484
    10.5147  11.3122  11.3403  11.4889  11.5014  11.5151  12.0050  12.6265
    12.6832  12.7890  12.8254  12.9614  13.0049  13.1751  13.1805  13.5281
    14.4734  14.5873  15.2856  15.3586  15.7274  15.8404  15.9218  16.0054

     occupation numbers 
     1.0000   1.0000   1.0000   1.0000   1.0000   1.0000   1.0000   1.0000
     1.0000   1.0000   1.0000   1.0000   1.0000   1.0000   1.0000   1.0000
     1.0000   1.0000   1.0000   1.0000   1.0000   1.0000   1.0000   1.0000
     1.0000   1.0000   1.0000   1.0000   1.0000   1.0000   1.0000   1.0000
     1.0000   1.0000   1.0000   1.0000   1.0000   1.0000   1.0000   1.0000
     1.0000   1.0000   1.0000   1.0000   1.0000   1.0000   1.0000   1.0000
     0.0000   0.0000   0.0000   0.0000   0.0000   0.0000   0.0000   0.0000

          k = 0.3333 0.4811-0.8289 ( 10230 PWs)   bands (ev):

   -35.1939 -35.1934 -35.1796 -34.8423 -34.8088 -34.7990 -13.4320 -13.4228
   -13.4026 -13.3981 -13.3723 -13.3676 -13.2145 -13.1392 -13.1235 -13.0848
   -12.9589 -12.9550 -12.8424 -12.8060 -12.7772 -12.7614 -12.7531 -12.7490
     1.5267   1.5385   7.9814   8.1430   8.6526   9.1293   9.1641   9.3513
    10.5129  11.3196  11.3299  11.4854  11.5047  11.5139  12.0119  12.6266
    12.6905  12.8008  12.8306  12.9553  13.0094  13.1677  13.1896  13.5161
    14.4656  14.5793  15.2890  15.3553  15.7262  15.8414  15.9122  16.0004

     occupation numbers 
     1.0000   1.0000   1.0000   1.0000   1.0000   1.0000   1.0000   1.0000
     1.0000   1.0000   1.0000   1.0000   1.0000   1.0000   1.0000   1.0000
     1.0000   1.0000   1.0000   1.0000   1.0000   1.0000   1.0000   1.0000
     1.0000   1.0000   1.0000   1.0000   1.0000   1.0000   1.0000   1.0000
     1.0000   1.0000   1.0000   1.0000   1.0000   1.0000   1.0000   1.0000
     1.0000   1.0000   1.0000   1.0000   1.0000   1.0000   1.0000   1.0000
     0.0000   0.0000   0.0000   0.0000   0.0000   0.0000   0.0000   0.0000

          k =-0.2500 0.5292 1.0361 ( 10238 PWs)   bands (ev):

   -35.1934 -35.1922 -35.1787 -34.8417 -34.8084 -34.7985 -13.4264 -13.4244
   -13.4192 -13.4118 -13.3791 -13.3682 -13.2260 -13.1192 -13.0944 -13.0917
   -12.9815 -12.9662 -12.8449 -12.8137 -12.7875 -12.7597 -12.7525 -12.7487
     1.5881   1.6171   7.7769   7.9776   8.7832   9.1359   9.2015   9.3320
    10.5585  11.3351  11.3621  11.4803  11.4964  11.6689  11.8983  12.6193
    12.7122  12.8069  12.8190  12.9345  12.9368  13.1330  13.1618  13.3263
    14.5398  14.6394  15.3455  15.3756  15.7521  16.0143  16.2881  16.2989

     occupation numbers 
     1.0000   1.0000   1.0000   1.0000   1.0000   1.0000   1.0000   1.0000
     1.0000   1.0000   1.0000   1.0000   1.0000   1.0000   1.0000   1.0000
     1.0000   1.0000   1.0000   1.0000   1.0000   1.0000   1.0000   1.0000
     1.0000   1.0000   1.0000   1.0000   1.0000   1.0000   1.0000   1.0000
     1.0000   1.0000   1.0000   1.0000   1.0000   1.0000   1.0000   1.0000
     1.0000   1.0000   1.0000   1.0000   1.0000   1.0000   1.0000   1.0000
     0.0000   0.0000   0.0000   0.0000   0.0000   0.0000   0.0000   0.0000

          k =-0.3333 0.4811-1.0361 ( 10238 PWs)   bands (ev):

   -35.1936 -35.1919 -35.1787 -34.8417 -34.8084 -34.7985 -13.4266 -13.4241
   -13.4214 -13.4092 -13.3790 -13.3688 -13.2264 -13.1160 -13.0974 -13.0920
   -12.9831 -12.9635 -12.8450 -12.8096 -12.7929 -12.7629 -12.7509 -12.7462
     1.5882   1.6169   7.7792   7.9747   8.7833   9.1406   9.1991   9.3312
    10.5589  11.3293  11.3673  11.4857  11.4906  11.6703  11.8970  12.6177
    12.7165  12.8002  12.8201  12.9306  12.9358  13.1400  13.1594  13.3292
    14.5348  14.6435  15.3499  15.3766  15.7506  16.0161  16.2757  16.2959

     occupation numbers 
     1.0000   1.0000   1.0000   1.0000   1.0000   1.0000   1.0000   1.0000
     1.0000   1.0000   1.0000   1.0000   1.0000   1.0000   1.0000   1.0000
     1.0000   1.0000   1.0000   1.0000   1.0000   1.0000   1.0000   1.0000
     1.0000   1.0000   1.0000   1.0000   1.0000   1.0000   1.0000   1.0000
     1.0000   1.0000   1.0000   1.0000   1.0000   1.0000   1.0000   1.0000
     1.0000   1.0000   1.0000   1.0000   1.0000   1.0000   1.0000   1.0000
     0.0000   0.0000   0.0000   0.0000   0.0000   0.0000   0.0000   0.0000

          k = 0.3333-0.5774-0.2072 ( 10248 PWs)   bands (ev):

   -35.2016 -35.2004 -35.1872 -34.8467 -34.8124 -34.8026 -13.4537 -13.4502
   -13.4131 -13.2681 -13.2528 -13.2509 -13.2230 -13.2200 -13.1992 -13.0335
   -12.9006 -12.8948 -12.8236 -12.7590 -12.7543 -12.7509 -12.7252 -12.7180
     1.0242   1.0285   7.5543   8.4954   8.4973   9.5493   9.8899  10.5964
    10.6010  10.8379  11.3070  11.3111  11.3989  11.4014  11.9689  11.9763
    12.3741  12.8258  12.8360  13.5202  13.8328  13.8470  13.8917  14.1848
    14.6112  14.6116  14.9192  14.9317  15.2447  15.4415  15.5964  15.6143

     occupation numbers 
     1.0000   1.0000   1.0000   1.0000   1.0000   1.0000   1.0000   1.0000
     1.0000   1.0000   1.0000   1.0000   1.0000   1.0000   1.0000   1.0000
     1.0000   1.0000   1.0000   1.0000   1.0000   1.0000   1.0000   1.0000
     1.0000   1.0000   1.0000   1.0000   1.0000   1.0000   1.0000   1.0000
     1.0000   1.0000   1.0000   1.0000   1.0000   1.0000   1.0000   1.0000
     1.0000   1.0000   1.0000   1.0000   0.8365   0.7978   0.6438   0.0037
     0.0000   0.0000   0.0000   0.0000   0.0000   0.0000   0.0000   0.0000

          k = 0.3333-0.5774-0.4144 ( 10266 PWs)   bands (ev):

   -35.1993 -35.1982 -35.1849 -34.8453 -34.8113 -34.8014 -13.4455 -13.4416
   -13.4010 -13.3060 -13.2997 -13.2959 -13.2030 -13.2011 -13.1865 -13.0662
   -12.9064 -12.9002 -12.8291 -12.7652 -12.7566 -12.7546 -12.7419 -12.7371
     1.1680   1.1711   7.8568   8.5742   8.5762   9.4873   9.7988   9.8020
    10.1049  11.0201  11.2910  11.2962  11.4655  11.4660  12.1970  12.2009
    12.2901  13.1021  13.1173  13.1263  13.3724  13.4519  13.4624  14.0261
    14.5293  14.5299  15.0462  15.0553  15.5443  15.5467  15.7294  15.7343

     occupation numbers 
     1.0000   1.0000   1.0000   1.0000   1.0000   1.0000   1.0000   1.0000
     1.0000   1.0000   1.0000   1.0000   1.0000   1.0000   1.0000   1.0000
     1.0000   1.0000   1.0000   1.0000   1.0000   1.0000   1.0000   1.0000
     1.0000   1.0000   1.0000   1.0000   1.0000   1.0000   1.0000   1.0000
     1.0000   1.0000   1.0000   1.0000   1.0000   1.0000   1.0000   1.0000
     1.0000   1.0000   1.0000   1.0000   1.0000   1.0000   1.0000   0.1518
     0.0000   0.0000   0.0000   0.0000   0.0000   0.0000   0.0000   0.0000

          k = 0.3333-0.5774-0.6217 ( 10221 PWs)   bands (ev):

   -35.1965 -35.1954 -35.1820 -34.8436 -34.8100 -34.8001 -13.4364 -13.4323
   -13.3856 -13.3554 -13.3535 -13.3437 -13.1932 -13.1684 -13.1653 -13.0889
   -12.9288 -12.9236 -12.8363 -12.7737 -12.7656 -12.7631 -12.7534 -12.7497
     1.3609   1.3625   8.2672   8.4598   8.4612   9.2334   9.2416   9.4036
    10.3493  11.2554  11.2895  11.2971  11.5078  11.5132  12.1486  12.4908
    12.4925  12.8605  12.9847  13.1568  13.1599  13.2559  13.2661  13.8021
    14.4279  14.4290  15.1650  15.1705  15.6469  15.6715  15.6728  15.7401

     occupation numbers 
     1.0000   1.0000   1.0000   1.0000   1.0000   1.0000   1.0000   1.0000
     1.0000   1.0000   1.0000   1.0000   1.0000   1.0000   1.0000   1.0000
     1.0000   1.0000   1.0000   1.0000   1.0000   1.0000   1.0000   1.0000
     1.0000   1.0000   1.0000   1.0000   1.0000   1.0000   1.0000   1.0000
     1.0000   1.0000   1.0000   1.0000   1.0000   1.0000   1.0000   1.0000
     1.0000   1.0000   1.0000   1.0000   1.0000   1.0000   1.0000   0.9033
     0.0000   0.0000   0.0000   0.0000   0.0000   0.0000   0.0000   0.0000

          k = 0.3333-0.5774-0.8289 ( 10248 PWs)   bands (ev):

   -35.1942 -35.1931 -35.1796 -34.8423 -34.8089 -34.7989 -13.4289 -13.4255
   -13.3986 -13.3976 -13.3730 -13.3725 -13.2162 -13.1295 -13.1249 -13.0898
   -12.9606 -12.9568 -12.8424 -12.7954 -12.7865 -12.7590 -12.7519 -12.7512
     1.5326   1.5328   8.0585   8.0620   8.6386   9.1598   9.1674   9.3303
    10.5077  11.3176  11.3300  11.5005  11.5022  11.5117  11.9942  12.6973
    12.7061  12.7546  12.8435  12.9900  12.9930  13.1484  13.1609  13.4933
    14.5309  14.5318  15.3700  15.3715  15.7291  15.8571  15.8576  15.9608

     occupation numbers 
     1.0000   1.0000   1.0000   1.0000   1.0000   1.0000   1.0000   1.0000
     1.0000   1.0000   1.0000   1.0000   1.0000   1.0000   1.0000   1.0000
     1.0000   1.0000   1.0000   1.0000   1.0000   1.0000   1.0000   1.0000
     1.0000   1.0000   1.0000   1.0000   1.0000   1.0000   1.0000   1.0000
     1.0000   1.0000   1.0000   1.0000   1.0000   1.0000   1.0000   1.0000
     1.0000   1.0000   1.0000   1.0000   1.0000   1.0000   1.0000   1.0000
     0.0000   0.0000   0.0000   0.0000   0.0000   0.0000   0.0000   0.0000

     the Fermi energy is    13.9272 ev

!    total energy              =    -713.87807652 Ry
     estimated scf accuracy    <       0.00000013 Ry
     smearing contrib. (-TS)   =      -0.00365152 Ry
     internal energy E=F+TS    =    -713.87442500 Ry

     The total energy is F=E-TS. E is the sum of the following terms:
     one-electron contribution =    -151.98302988 Ry
     hartree contribution      =     124.45961627 Ry
     xc contribution           =    -144.35206975 Ry
     ewald contribution        =    -541.99894164 Ry

     convergence has been achieved in   6 iterations

     Writing all to output data dir ./tmp/Zr6NiTe2.save/ :
     XML data file, charge density, pseudopotentials, collected wavefunctions

     init_run     :    854.79s CPU    860.78s WALL (       1 calls)
     electrons    :  10924.25s CPU  10991.09s WALL (       1 calls)

     Called by init_run:
     wfcinit      :    852.78s CPU    858.24s WALL (       1 calls)
     wfcinit:atom :      2.10s CPU      2.10s WALL (     398 calls)
     wfcinit:wfcr :    833.93s CPU    839.35s WALL (     398 calls)
     potinit      :      0.27s CPU      0.34s WALL (       1 calls)
     hinit0       :      0.40s CPU      0.44s WALL (       1 calls)

     Called by electrons:
     c_bands      :  10098.54s CPU  10157.69s WALL (       7 calls)
     sum_band     :    820.02s CPU    826.61s WALL (       7 calls)
     v_of_rho     :      1.17s CPU      1.24s WALL (       7 calls)
     v_h          :      0.08s CPU      0.09s WALL (       7 calls)
     v_xc         :      1.08s CPU      1.15s WALL (       7 calls)
     newd         :      5.55s CPU      6.93s WALL (       7 calls)
     mix_rho      :      0.15s CPU      0.17s WALL (       7 calls)

     Called by c_bands:
     init_us_2    :     49.79s CPU     50.34s WALL (    5970 calls)
     cegterg      :   9993.70s CPU  10051.96s WALL (    2786 calls)

     Called by sum_band:
     sum_band:wei :      0.09s CPU      0.10s WALL (       7 calls)
     sum_band:loo :    811.47s CPU    816.49s WALL (       7 calls)
     sum_band:buf :      4.61s CPU      4.64s WALL (    2786 calls)
     sum_band:ini :     22.50s CPU     22.54s WALL (    2786 calls)
     sum_band:cal :    440.64s CPU    440.97s WALL (    2786 calls)
     sum_band:bec :      0.74s CPU      0.74s WALL (    2786 calls)
     addusdens    :      8.30s CPU      9.86s WALL (       7 calls)
                                        0.00s GPU  (       7 calls)
     addusd:skk   :      0.03s CPU      0.03s WALL (      14 calls)
                                        0.00s GPU  (      14 calls)

     Called by *egterg:
     cdiaghg      :    150.86s CPU    151.17s WALL (   18183 calls)
     cegterg:over :   1396.90s CPU   1399.41s WALL (   15795 calls)
     cegterg:upda :    617.03s CPU    619.42s WALL (   15795 calls)
     cegterg:last :   1562.51s CPU   1564.86s WALL (    7323 calls)
     h_psi        :   5235.02s CPU   5282.48s WALL (   18979 calls)
     s_psi        :   1165.15s CPU   1167.29s WALL (   18979 calls)
     g_psi        :     12.12s CPU     12.17s WALL (   15795 calls)

     Called by h_psi:
     h_psi:calbec :   1565.90s CPU   1568.71s WALL (   18979 calls)
     vloc_psi     :   2488.65s CPU   2527.49s WALL (   18979 calls)
     add_vuspsi   :   1161.72s CPU   1163.62s WALL (   18979 calls)

     General routines
     calbec       :   2006.40s CPU   2009.58s WALL (   21765 calls)
     fft          :      0.79s CPU      0.83s WALL (      90 calls)
     ffts         :      0.05s CPU      0.05s WALL (      14 calls)
     fftw         :   2356.69s CPU   2390.67s WALL ( 1192588 calls)
     interpolate  :      0.10s CPU      0.11s WALL (       7 calls)

     Parallel routines

     PWSCF        :      3h16m CPU      3h17m WALL


   This run was terminated on:  22:15:20   3Aug2025            

=------------------------------------------------------------------------------=
   JOB DONE.
=------------------------------------------------------------------------------=
