
     Program PWSCF v.7.4.1 starts on  2Aug2025 at 11: 8:36 

     This program is part of the open-source Quantum ESPRESSO suite
     for quantum simulation of materials; please cite
         "P. Giannozzi et al., J. Phys.:Condens. Matter 21 395502 (2009);
         "P. Giannozzi et al., J. Phys.:Condens. Matter 29 465901 (2017);
         "P. Giannozzi et al., J. Chem. Phys. 152 154105 (2020);
          URL http://www.quantum-espresso.org", 
     in publications or presentations arising from this work. More details at
     http://www.quantum-espresso.org/quote

     Parallel version (MPI), running on     2 processors

     MPI processes distributed on     1 nodes
     1261 MiB available memory on the printing compute node when the environment starts

     Waiting for input...
     Reading input from standard input
Warning: card &CELL ignored
Warning: card / ignored

     Current dimensions of program PWSCF are:
     Max number of different atomic species (ntypx) = 10
     Max number of k-points (npk) =  40000
     Max angular momentum in pseudopotentials (lmaxx) =  4
     file Ni.pbe-nd-rrkjus.upf: wavefunction(s)  4S renormalized

     R & G space division:  proc/nbgrp/npool/nimage =       2
     Subspace diagonalization in iterative solution of the eigenvalue problem:
     a serial algorithm will be used


     Parallelization info
     --------------------
     sticks:   dense  smooth     PW     G-vecs:    dense   smooth      PW
     Min        2658    1767    507                75267    40916    6252
     Max        2659    1768    508                75268    40917    6253
     Sum        5317    3535   1015               150535    81833   12505

     Using Slab Decomposition



     bravais-lattice index     =            4
     lattice parameter (alat)  =      14.6159  a.u.
     unit-cell volume          =    1304.9057 (a.u.)^3
     number of atoms/cell      =            1
     number of atomic types    =            1
     number of electrons       =        10.00
     number of Kohn-Sham states=            9
     kinetic-energy cutoff     =      60.0000  Ry
     charge density cutoff     =     360.0000  Ry
     scf convergence threshold =      1.0E-06
     mixing beta               =       0.4000
     number of iterations used =            8  plain     mixing
     energy convergence thresh.=      1.0E-04
     force convergence thresh. =      1.0E-03
     Exchange-correlation= SLA  PW   PBE  PBE
                           (   1   4   3   4   0   0   0)
     nstep                     =          100


     celldm(1)=  14.615898  celldm(2)=   1.000000  celldm(3)=   0.482583
     celldm(4)=   0.000000  celldm(5)=   0.000000  celldm(6)=   0.000000

     crystal axes: (cart. coord. in units of alat)
               a(1) = (   1.000000   0.000000   0.000000 )  
               a(2) = (  -0.500000   0.866025   0.000000 )  
               a(3) = (   0.000000   0.000000   0.482583 )  

     reciprocal axes: (cart. coord. in units 2 pi/alat)
               b(1) = (  1.000000  0.577350 -0.000000 )  
               b(2) = (  0.000000  1.154701  0.000000 )  
               b(3) = (  0.000000 -0.000000  2.072182 )  


     PseudoPot. # 1 for Ni read from file:
     /home/tauqeer/Zr6MTe2/sudopoten/Ni.pbe-nd-rrkjus.upf
     MD5 check sum: d71bc9c4c8adef96ad6fe9664ede368e
     Pseudo is Ultrasoft + core correction, Zval = 10.0
     Generated by new atomic code, or converted to UPF format
     Using radial grid of 1203 points,  6 beta functions with: 
                l(1) =   0
                l(2) =   0
                l(3) =   1
                l(4) =   1
                l(5) =   2
                l(6) =   2
     Q(r) pseudized with 0 coefficients 


     atomic species   valence    mass     pseudopotential
     Ni               10.00    58.69340     Ni( 1.00)

     12 Sym. Ops. (no inversion) found



   Cartesian axes

     site n.     atom                  positions (alat units)
         1        Ni     tau(   1) = (   0.0000000   0.0000000   0.2399984  )

     number of k points=     9  Gaussian smearing, width (Ry)=  0.0100
                       cart. coord. in units 2pi/alat
        k(    1) = (   0.0000000   0.0000000   0.0000000), wk =   0.0555556
        k(    2) = (   0.0000000   0.0000000   0.5180456), wk =   0.1111111
        k(    3) = (   0.0000000   0.0000000  -1.0360912), wk =   0.0555556
        k(    4) = (   0.0000000   0.3849002   0.0000000), wk =   0.3333333
        k(    5) = (   0.0000000   0.3849002   0.5180456), wk =   0.6666667
        k(    6) = (   0.0000000   0.3849002  -1.0360912), wk =   0.3333333
        k(    7) = (   0.3333333   0.5773503   0.0000000), wk =   0.1111111
        k(    8) = (   0.3333333   0.5773503   0.5180456), wk =   0.2222222
        k(    9) = (   0.3333333   0.5773503  -1.0360912), wk =   0.1111111

     Dense  grid:   150535 G-vectors     FFT dimensions: (  90,  90,  45)

     Smooth grid:    81833 G-vectors     FFT dimensions: (  75,  75,  36)

     Estimated max dynamical RAM per process >     269.13 MB

     Estimated total dynamical RAM >     538.27 MB

     Check: negative core charge=   -0.000003

     Initial potential from superposition of free atoms

     starting charge       9.9995, renormalised to      10.0000
     Starting wfcs are    6 randomized atomic wfcs +    3 random wfcs

     total cpu time spent up to now is        1.6 secs

     Self-consistent Calculation

     iteration #  1     ecut=    60.00 Ry     beta= 0.40
     Davidson diagonalization with overlap
     ethr =  1.00E-02,  avg # of iterations =  7.2

     Threshold (ethr) on eigenvalues was too large:
     Diagonalizing with lowered threshold

     Davidson diagonalization with overlap
     ethr =  9.14E-04,  avg # of iterations =  1.0

     total cpu time spent up to now is        6.8 secs

     total energy              =     -85.50753383 Ry
     estimated scf accuracy    <       0.09162235 Ry

     iteration #  2     ecut=    60.00 Ry     beta= 0.40
     Davidson diagonalization with overlap
     ethr =  9.16E-04,  avg # of iterations =  2.0

     total cpu time spent up to now is        9.5 secs

     total energy              =     -85.52977611 Ry
     estimated scf accuracy    <       0.77067287 Ry

     iteration #  3     ecut=    60.00 Ry     beta= 0.40
     Davidson diagonalization with overlap
     ethr =  9.16E-04,  avg # of iterations =  2.0

     total cpu time spent up to now is       13.2 secs

     total energy              =     -85.55329917 Ry
     estimated scf accuracy    <       0.09536385 Ry

     iteration #  4     ecut=    60.00 Ry     beta= 0.40
     Davidson diagonalization with overlap
     ethr =  9.16E-04,  avg # of iterations =  1.0

     total cpu time spent up to now is       16.0 secs

     total energy              =     -85.55541531 Ry
     estimated scf accuracy    <       0.02062360 Ry

     iteration #  5     ecut=    60.00 Ry     beta= 0.40
     Davidson diagonalization with overlap
     ethr =  2.06E-04,  avg # of iterations =  1.0

     total cpu time spent up to now is       19.1 secs

     total energy              =     -85.54206358 Ry
     estimated scf accuracy    <       0.05422550 Ry

     iteration #  6     ecut=    60.00 Ry     beta= 0.40
     Davidson diagonalization with overlap
     ethr =  2.06E-04,  avg # of iterations =  2.4

     total cpu time spent up to now is       22.4 secs

     total energy              =     -85.55992308 Ry
     estimated scf accuracy    <       0.14534724 Ry

     iteration #  7     ecut=    60.00 Ry     beta= 0.40
     Davidson diagonalization with overlap
     ethr =  2.06E-04,  avg # of iterations =  1.6

     total cpu time spent up to now is       25.6 secs

     total energy              =     -85.54850160 Ry
     estimated scf accuracy    <       0.11009965 Ry

     iteration #  8     ecut=    60.00 Ry     beta= 0.40
     Davidson diagonalization with overlap
     ethr =  2.06E-04,  avg # of iterations =  1.0

     total cpu time spent up to now is       28.6 secs

     total energy              =     -85.55362984 Ry
     estimated scf accuracy    <       0.00574818 Ry

     iteration #  9     ecut=    60.00 Ry     beta= 0.40
     Davidson diagonalization with overlap
     ethr =  5.75E-05,  avg # of iterations =  1.1

     total cpu time spent up to now is       31.8 secs

     total energy              =     -85.55387769 Ry
     estimated scf accuracy    <       0.00017467 Ry

     iteration # 10     ecut=    60.00 Ry     beta= 0.40
     Davidson diagonalization with overlap
     ethr =  1.75E-06,  avg # of iterations =  3.2

     total cpu time spent up to now is       35.0 secs

     total energy              =     -85.55392391 Ry
     estimated scf accuracy    <       0.00057181 Ry

     iteration # 11     ecut=    60.00 Ry     beta= 0.40
     Davidson diagonalization with overlap
     ethr =  1.75E-06,  avg # of iterations =  1.0

     total cpu time spent up to now is       38.3 secs

     total energy              =     -85.55387721 Ry
     estimated scf accuracy    <       0.00065858 Ry

     iteration # 12     ecut=    60.00 Ry     beta= 0.40
     Davidson diagonalization with overlap
     ethr =  1.75E-06,  avg # of iterations =  1.0

     total cpu time spent up to now is       41.3 secs

     total energy              =     -85.55390499 Ry
     estimated scf accuracy    <       0.00001668 Ry

     iteration # 13     ecut=    60.00 Ry     beta= 0.40
     Davidson diagonalization with overlap
     ethr =  1.67E-07,  avg # of iterations =  1.0

     total cpu time spent up to now is       44.0 secs

     total energy              =     -85.55390879 Ry
     estimated scf accuracy    <       0.00005273 Ry

     iteration # 14     ecut=    60.00 Ry     beta= 0.40
     Davidson diagonalization with overlap
     ethr =  1.67E-07,  avg # of iterations =  1.0

     total cpu time spent up to now is       46.9 secs

     total energy              =     -85.55389744 Ry
     estimated scf accuracy    <       0.00020642 Ry

     iteration # 15     ecut=    60.00 Ry     beta= 0.40
     Davidson diagonalization with overlap
     ethr =  1.67E-07,  avg # of iterations =  1.0

     total cpu time spent up to now is       53.6 secs

     End of self-consistent calculation

          k = 0.0000 0.0000 0.0000 ( 10193 PWs)   bands (ev):

    -4.3797  -3.7213  -3.7015  -3.7015  -3.6166  -3.6166   0.1535   0.1535
     0.7800

          k = 0.0000 0.0000 0.5180 ( 10223 PWs)   bands (ev):

    -3.7618  -3.7028  -3.7028  -3.6871  -3.6871  -3.5794   0.8399   0.8399
     1.4017

          k = 0.0000 0.0000-1.0361 ( 10170 PWs)   bands (ev):

    -3.7799  -3.7799  -3.6729  -3.6729  -3.6405  -2.1017  -0.6410   2.0859
     2.0860

          k = 0.0000 0.3849 0.0000 ( 10227 PWs)   bands (ev):

    -4.3556  -3.7063  -3.6998  -3.6993  -3.6167  -3.6166  -0.5187   0.0147
     1.4427

          k = 0.0000 0.3849 0.5180 ( 10233 PWs)   bands (ev):

    -3.7596  -3.7038  -3.7030  -3.6873  -3.6859  -3.5433   0.1724   0.7033
     2.0502

          k = 0.0000 0.3849-1.0361 ( 10240 PWs)   bands (ev):

    -3.7809  -3.7802  -3.6729  -3.6722  -3.6380  -2.0745  -0.5874   1.6329
     1.9923

          k = 0.3333 0.5774 0.0000 ( 10290 PWs)   bands (ev):

    -4.3436  -3.7004  -3.7004  -3.6944  -3.6167  -3.6167  -0.4514  -0.4514
     2.4331

          k = 0.3333 0.5774 0.5180 ( 10245 PWs)   bands (ev):

    -3.7587  -3.7037  -3.7037  -3.6863  -3.6863  -3.5246   0.2410   0.2410
     2.3051

          k = 0.3333 0.5774-1.0361 ( 10248 PWs)   bands (ev):

    -3.7809  -3.7809  -3.6724  -3.6724  -3.6367  -2.0604  -0.5592   1.6776
     1.6776

     the Fermi energy is    -3.5584 ev

!    total energy              =     -85.55390369 Ry
     estimated scf accuracy    <       0.00000007 Ry
     smearing contrib. (-TS)   =      -0.01353951 Ry
     internal energy E=F+TS    =     -85.54036417 Ry

     The total energy is F=E-TS. E is the sum of the following terms:
     one-electron contribution =     -83.48352776 Ry
     hartree contribution      =      50.04995619 Ry
     xc contribution           =     -29.97959845 Ry
     ewald contribution        =     -22.12719416 Ry

     convergence has been achieved in  15 iterations

     Forces acting on atoms (cartesian axes, Ry/au):

     atom    1 type  1   force =     0.00000000    0.00000000    0.00000000

     Total force =     0.000000     Total SCF correction =     0.000018

     BFGS Geometry Optimization
     Energy error            =      0.0E+00 Ry
     Gradient error          =      0.0E+00 Ry/Bohr

     bfgs converged in   1 scf cycles and   0 bfgs steps
     (criteria: energy <  1.0E-04 Ry, force <  1.0E-03 Ry/Bohr)

     End of BFGS Geometry Optimization

     Final energy             =     -85.5539036853 Ry
Begin final coordinates

ATOMIC_POSITIONS (angstrom)
Ni               0.0000000000        0.0000000000        1.8562440000
End final coordinates



     Writing all to output data dir ./tmp/Zr6NiTe2.save/ :
     XML data file, charge density, pseudopotentials, collected wavefunctions

     init_run     :      1.31s CPU      1.46s WALL (       1 calls)
     electrons    :     42.59s CPU     52.09s WALL (       1 calls)
     forces       :      0.69s CPU      0.82s WALL (       1 calls)

     Called by init_run:
     wfcinit      :      0.50s CPU      0.52s WALL (       1 calls)
     potinit      :      0.21s CPU      0.24s WALL (       1 calls)
     hinit0       :      0.26s CPU      0.27s WALL (       1 calls)

     Called by electrons:
     c_bands      :     22.88s CPU     27.06s WALL (      16 calls)
     sum_band     :     11.43s CPU     14.58s WALL (      16 calls)
     v_of_rho     :      3.08s CPU      3.41s WALL (      16 calls)
     newd         :      4.62s CPU      6.39s WALL (      16 calls)
     mix_rho      :      0.68s CPU      0.81s WALL (      16 calls)

     Called by c_bands:
     init_us_2    :      0.71s CPU      0.75s WALL (     306 calls)
     cegterg      :     21.82s CPU     25.87s WALL (     144 calls)

     Called by *egterg:
     cdiaghg      :      0.07s CPU      0.14s WALL (     392 calls)
     h_psi        :     18.95s CPU     22.61s WALL (     410 calls)
     s_psi        :      0.70s CPU      0.78s WALL (     410 calls)
     g_psi        :      0.05s CPU      0.05s WALL (     257 calls)

     Called by h_psi:
     h_psi:calbec :      0.96s CPU      1.13s WALL (     410 calls)
     vloc_psi     :     17.22s CPU     20.60s WALL (     410 calls)
     add_vuspsi   :      0.69s CPU      0.79s WALL (     410 calls)

     General routines
     calbec       :      1.47s CPU      1.71s WALL (     590 calls)
     fft          :      2.23s CPU      2.58s WALL (     218 calls)
     ffts         :      0.13s CPU      0.15s WALL (      32 calls)
     fftw         :     16.13s CPU     19.47s WALL (    7182 calls)
     interpolate  :      0.26s CPU      0.29s WALL (      16 calls)

     Parallel routines

     PWSCF        :     44.71s CPU     54.54s WALL


   This run was terminated on:  11: 9:31   2Aug2025            

=------------------------------------------------------------------------------=
   JOB DONE.
=------------------------------------------------------------------------------=
