
     Program PWSCF v.7.4.1 starts on  2Aug2025 at  9:55:35 

     This program is part of the open-source Quantum ESPRESSO suite
     for quantum simulation of materials; please cite
         "P. Giannozzi et al., J. Phys.:Condens. Matter 21 395502 (2009);
         "P. Giannozzi et al., J. Phys.:Condens. Matter 29 465901 (2017);
         "P. Giannozzi et al., J. Chem. Phys. 152 154105 (2020);
          URL http://www.quantum-espresso.org", 
     in publications or presentations arising from this work. More details at
     http://www.quantum-espresso.org/quote

     Parallel version (MPI), running on     2 processors

     MPI processes distributed on     1 nodes
     1218 MiB available memory on the printing compute node when the environment starts

     Waiting for input...
     Reading input from standard input
Warning: card &CELL ignored
Warning: card / ignored

     Current dimensions of program PWSCF are:
     Max number of different atomic species (ntypx) = 10
     Max number of k-points (npk) =  40000
     Max angular momentum in pseudopotentials (lmaxx) =  4

     R & G space division:  proc/nbgrp/npool/nimage =       2
     Subspace diagonalization in iterative solution of the eigenvalue problem:
     a serial algorithm will be used


     Parallelization info
     --------------------
     sticks:   dense  smooth     PW     G-vecs:    dense   smooth      PW
     Min        2658    1767    507                75267    40916    6252
     Max        2659    1768    508                75268    40917    6253
     Sum        5317    3535   1015               150535    81833   12505

     Using Slab Decomposition



     bravais-lattice index     =            4
     lattice parameter (alat)  =      14.6159  a.u.
     unit-cell volume          =    1304.9057 (a.u.)^3
     number of atoms/cell      =            6
     number of atomic types    =            1
     number of electrons       =        72.00
     number of Kohn-Sham states=           43
     kinetic-energy cutoff     =      60.0000  Ry
     charge density cutoff     =     360.0000  Ry
     scf convergence threshold =      1.0E-06
     mixing beta               =       0.4000
     number of iterations used =            8  plain     mixing
     energy convergence thresh.=      1.0E-04
     force convergence thresh. =      1.0E-03
     Exchange-correlation= SLA  PW   PBE  PBE
                           (   1   4   3   4   0   0   0)
     nstep                     =          100


     celldm(1)=  14.615898  celldm(2)=   1.000000  celldm(3)=   0.482583
     celldm(4)=   0.000000  celldm(5)=   0.000000  celldm(6)=   0.000000

     crystal axes: (cart. coord. in units of alat)
               a(1) = (   1.000000   0.000000   0.000000 )  
               a(2) = (  -0.500000   0.866025   0.000000 )  
               a(3) = (   0.000000   0.000000   0.482583 )  

     reciprocal axes: (cart. coord. in units 2 pi/alat)
               b(1) = (  1.000000  0.577350 -0.000000 )  
               b(2) = (  0.000000  1.154701  0.000000 )  
               b(3) = (  0.000000 -0.000000  2.072182 )  


     PseudoPot. # 1 for Zr read from file:
     /home/tauqeer/Zr6MTe2/sudopoten/Zr.pbe-nsp-van.upf
     MD5 check sum: f06f7249673c13908de31cca45056a07
     Pseudo is Ultrasoft + core correction, Zval = 12.0
     Generated by new atomic code, or converted to UPF format
     Using radial grid of  887 points,  6 beta functions with: 
                l(1) =   0
                l(2) =   0
                l(3) =   1
                l(4) =   1
                l(5) =   2
                l(6) =   2
     Q(r) pseudized with  6 coefficients,  rinner =    1.200   1.200   1.200
                                                       1.200   1.200

     atomic species   valence    mass     pseudopotential
     Zr               12.00    91.22400     Zr( 1.00)

      2 Sym. Ops. (no inversion) found



   Cartesian axes

     site n.     atom                  positions (alat units)
         1        Zr     tau(   1) = (   0.2373720   0.0000000   0.0000000  )
         2        Zr     tau(   2) = (  -0.1186860   0.2055702   0.0000000  )
         3        Zr     tau(   3) = (   0.3800213   0.6582163   0.0000000  )
         4        Zr     tau(   4) = (   0.5908246   0.0000000   0.2399984  )
         5        Zr     tau(   5) = (  -0.2954123   0.5116692   0.2399984  )
         6        Zr     tau(   6) = (   0.2032950   0.3521173   0.2399984  )

     number of k points=    14  Gaussian smearing, width (Ry)=  0.0100
                       cart. coord. in units 2pi/alat
        k(    1) = (   0.0000000   0.0000000   0.0000000), wk =   0.0555556
        k(    2) = (   0.0000000   0.0000000   0.5180456), wk =   0.1111111
        k(    3) = (   0.0000000   0.0000000  -1.0360912), wk =   0.0555556
        k(    4) = (   0.0000000   0.3849002   0.0000000), wk =   0.2222222
        k(    5) = (   0.0000000   0.3849002   0.5180456), wk =   0.2222222
        k(    6) = (   0.0000000   0.3849002  -1.0360912), wk =   0.2222222
        k(    7) = (   0.3333333   0.5773503   0.0000000), wk =   0.1111111
        k(    8) = (   0.3333333   0.5773503   0.5180456), wk =   0.1111111
        k(    9) = (   0.3333333   0.5773503  -1.0360912), wk =   0.1111111
        k(   10) = (  -0.3333333   0.1924501   0.0000000), wk =   0.1111111
        k(   11) = (   0.0000000   0.3849002  -0.5180456), wk =   0.2222222
        k(   12) = (  -0.3333333   0.1924501   0.5180456), wk =   0.2222222
        k(   13) = (  -0.3333333   0.1924501  -1.0360912), wk =   0.1111111
        k(   14) = (   0.3333333  -0.5773503  -0.5180456), wk =   0.1111111

     Dense  grid:   150535 G-vectors     FFT dimensions: (  90,  90,  45)

     Smooth grid:    81833 G-vectors     FFT dimensions: (  75,  75,  36)

     Estimated max dynamical RAM per process >     336.77 MB

     Estimated total dynamical RAM >     673.54 MB

     Initial potential from superposition of free atoms

     starting charge      71.9871, renormalised to      72.0000

     negative rho (up, down):  3.660E-01 0.000E+00
     Starting wfcs are   78 randomized atomic wfcs

     total cpu time spent up to now is       17.0 secs

     Self-consistent Calculation

     iteration #  1     ecut=    60.00 Ry     beta= 0.40
     Davidson diagonalization with overlap
     ethr =  1.00E-02,  avg # of iterations =  2.0

     Threshold (ethr) on eigenvalues was too large:
     Diagonalizing with lowered threshold

     Davidson diagonalization with overlap
     ethr =  8.69E-04,  avg # of iterations =  1.6

     negative rho (up, down):  3.675E-01 0.000E+00

     total cpu time spent up to now is       60.9 secs

     total energy              =    -594.30535566 Ry
     estimated scf accuracy    <       0.65869144 Ry

     iteration #  2     ecut=    60.00 Ry     beta= 0.40
     Davidson diagonalization with overlap
     ethr =  9.15E-04,  avg # of iterations =  6.1

     negative rho (up, down):  3.676E-01 0.000E+00

     total cpu time spent up to now is       94.3 secs

     total energy              =    -594.19698444 Ry
     estimated scf accuracy    <       4.31765539 Ry

     iteration #  3     ecut=    60.00 Ry     beta= 0.40
     Davidson diagonalization with overlap
     ethr =  9.15E-04,  avg # of iterations =  4.4

     negative rho (up, down):  3.696E-01 0.000E+00

     total cpu time spent up to now is      122.6 secs

     total energy              =    -594.54940820 Ry
     estimated scf accuracy    <       0.03717779 Ry

     iteration #  4     ecut=    60.00 Ry     beta= 0.40
     Davidson diagonalization with overlap
     ethr =  5.16E-05,  avg # of iterations =  6.6

     negative rho (up, down):  3.710E-01 0.000E+00

     total cpu time spent up to now is      159.7 secs

     total energy              =    -594.54744083 Ry
     estimated scf accuracy    <       0.32250197 Ry

     iteration #  5     ecut=    60.00 Ry     beta= 0.40
     Davidson diagonalization with overlap
     ethr =  5.16E-05,  avg # of iterations =  5.1

     negative rho (up, down):  3.711E-01 0.000E+00

     total cpu time spent up to now is      189.0 secs

     total energy              =    -594.56217669 Ry
     estimated scf accuracy    <       0.02917185 Ry

     iteration #  6     ecut=    60.00 Ry     beta= 0.40
     Davidson diagonalization with overlap
     ethr =  4.05E-05,  avg # of iterations =  2.3

     negative rho (up, down):  3.712E-01 0.000E+00

     total cpu time spent up to now is      212.7 secs

     total energy              =    -594.56172721 Ry
     estimated scf accuracy    <       0.01161321 Ry

     iteration #  7     ecut=    60.00 Ry     beta= 0.40
     Davidson diagonalization with overlap
     ethr =  1.61E-05,  avg # of iterations =  3.9

     negative rho (up, down):  3.716E-01 0.000E+00

     total cpu time spent up to now is      238.3 secs

     total energy              =    -594.56333231 Ry
     estimated scf accuracy    <       0.00063986 Ry

     iteration #  8     ecut=    60.00 Ry     beta= 0.40
     Davidson diagonalization with overlap
     ethr =  8.89E-07,  avg # of iterations =  8.4

     negative rho (up, down):  3.718E-01 0.000E+00

     total cpu time spent up to now is      276.5 secs

     total energy              =    -594.56303537 Ry
     estimated scf accuracy    <       0.00457011 Ry

     iteration #  9     ecut=    60.00 Ry     beta= 0.40
     Davidson diagonalization with overlap
     ethr =  8.89E-07,  avg # of iterations =  5.1

     negative rho (up, down):  3.719E-01 0.000E+00

     total cpu time spent up to now is      309.1 secs

     total energy              =    -594.56347207 Ry
     estimated scf accuracy    <       0.00011687 Ry

     iteration # 10     ecut=    60.00 Ry     beta= 0.40
     Davidson diagonalization with overlap
     ethr =  1.62E-07,  avg # of iterations =  2.3

     negative rho (up, down):  3.719E-01 0.000E+00

     total cpu time spent up to now is      332.9 secs

     total energy              =    -594.56348091 Ry
     estimated scf accuracy    <       0.00000559 Ry

     iteration # 11     ecut=    60.00 Ry     beta= 0.40
     Davidson diagonalization with overlap
     ethr =  7.76E-09,  avg # of iterations =  5.3

     negative rho (up, down):  3.719E-01 0.000E+00

     total cpu time spent up to now is      365.3 secs

     total energy              =    -594.56348209 Ry
     estimated scf accuracy    <       0.00001733 Ry

     iteration # 12     ecut=    60.00 Ry     beta= 0.40
     Davidson diagonalization with overlap
     ethr =  7.76E-09,  avg # of iterations =  4.8

     negative rho (up, down):  3.718E-01 0.000E+00

     total cpu time spent up to now is      392.9 secs

     End of self-consistent calculation

          k = 0.0000 0.0000 0.0000 ( 10193 PWs)   bands (ev):

   -40.0975 -40.0927 -40.0751 -39.6285 -39.5990 -39.5888 -18.1873 -18.1247
   -18.1128 -18.0668 -18.0446 -18.0399 -18.0358 -18.0096 -17.9964 -17.7434
   -17.6780 -17.6759 -17.5110 -17.4978 -17.4935 -17.4845 -17.4502 -17.4452
     4.6445   7.3686   7.3692   7.4040   7.4907   7.4942   8.2654   8.5112
     8.9156   8.9453   9.2379   9.5959   9.7326   9.7381   9.7677   9.7831
     9.9768  10.4487  10.4577

          k = 0.0000 0.0000 0.5180 ( 10223 PWs)   bands (ev):

   -40.0929 -40.0896 -40.0715 -39.6273 -39.5960 -39.5856 -18.1673 -18.1283
   -18.1182 -18.1029 -18.1014 -18.0900 -18.0227 -18.0172 -18.0070 -17.7772
   -17.6423 -17.6403 -17.5736 -17.5329 -17.5236 -17.4957 -17.4633 -17.4573
     5.4925   7.8365   7.8441   7.9124   8.0041   8.0056   8.2131   8.3570
     8.7192   9.0224   9.0382   9.1470   9.1505   9.5685   9.5827   9.6001
     9.8538  10.2002  10.2003

          k = 0.0000 0.0000-1.0361 ( 10170 PWs)   bands (ev):

   -40.0884 -40.0865 -40.0679 -39.6262 -39.5931 -39.5825 -18.1784 -18.1722
   -18.1476 -18.1358 -18.1321 -18.1251 -18.0086 -18.0051 -17.9563 -17.8231
   -17.6421 -17.6204 -17.6147 -17.5332 -17.5262 -17.5099 -17.5010 -17.4893
     7.3275   7.4205   7.7510   7.7615   7.9923   7.9946   8.0567   8.1487
     8.1726   9.2843   9.2917   9.5041   9.5172   9.5830  10.0430  10.1113
    10.1213  10.1779  10.1972

          k = 0.0000 0.3849 0.0000 ( 10227 PWs)   bands (ev):

   -40.0962 -40.0937 -40.0753 -39.6304 -39.5979 -39.5881 -18.1715 -18.1431
   -18.1303 -18.0759 -18.0460 -18.0308 -18.0150 -18.0003 -17.9991 -17.8072
   -17.6463 -17.5951 -17.5238 -17.4933 -17.4929 -17.4866 -17.4854 -17.4552
     5.1062   6.3125   6.7953   7.4357   7.7491   7.8332   8.1919   8.3017
     8.7224   9.2906   9.4444   9.5879   9.6969   9.9337  10.0444  10.0688
    10.2975  10.3084  10.5957

          k = 0.0000 0.3849 0.5180 ( 10233 PWs)   bands (ev):

   -40.0920 -40.0903 -40.0716 -39.6282 -39.5955 -39.5853 -18.1600 -18.1402
   -18.1243 -18.1017 -18.0933 -18.0765 -18.0377 -18.0179 -17.9998 -17.7945
   -17.6443 -17.6257 -17.5619 -17.5265 -17.5192 -17.4990 -17.4744 -17.4644
     5.8853   6.9239   7.4314   7.8435   8.0828   8.2826   8.4037   8.4841
     8.7427   8.9182   9.0755   9.1535   9.2768   9.3385   9.3997   9.8312
    10.0246  10.1772  10.2305

          k = 0.0000 0.3849-1.0361 ( 10240 PWs)   bands (ev):

   -40.0879 -40.0869 -40.0679 -39.6261 -39.5931 -39.5826 -18.1806 -18.1665
   -18.1510 -18.1353 -18.1258 -18.1086 -18.0407 -17.9995 -17.9494 -17.8206
   -17.6568 -17.6306 -17.6108 -17.5478 -17.5369 -17.5087 -17.4834 -17.4680
     7.2417   7.4423   7.6194   7.6763   7.8146   8.1109   8.3157   8.5204
     8.8149   8.8986   8.9641   9.0603   9.4316   9.5588   9.7167   9.7842
     9.8890  10.4346  10.7319

          k = 0.3333 0.5774 0.0000 ( 10290 PWs)   bands (ev):

   -40.0953 -40.0944 -40.0755 -39.6312 -39.5978 -39.5874 -18.1617 -18.1551
   -18.1340 -18.0513 -18.0491 -18.0279 -18.0216 -18.0201 -18.0042 -17.7964
   -17.6126 -17.6089 -17.5279 -17.4944 -17.4915 -17.4838 -17.4829 -17.4745
     5.7615   6.0186   6.0191   7.4161   7.8095   7.8100   8.2970   8.3027
     8.8206   9.3427   9.4764   9.4945   9.6825   9.9916   9.9926   9.9939
    10.3758  10.3819  10.5985

          k = 0.3333 0.5774 0.5180 ( 10245 PWs)   bands (ev):

   -40.0916 -40.0907 -40.0717 -39.6286 -39.5955 -39.5850 -18.1554 -18.1487
   -18.1195 -18.0992 -18.0946 -18.0862 -18.0197 -18.0156 -18.0066 -17.8111
   -17.6325 -17.6308 -17.5398 -17.5268 -17.5226 -17.5008 -17.4799 -17.4715
     6.4250   6.6936   6.6942   8.0053   8.1506   8.1543   8.4579   8.7587
     8.7609   8.9212   8.9776   9.0595   9.0674   9.4181   9.4224  10.0121
    10.0219  10.2499  10.2561

          k = 0.3333 0.5774-1.0361 ( 10248 PWs)   bands (ev):

   -40.0878 -40.0870 -40.0679 -39.6261 -39.5931 -39.5826 -18.1691 -18.1626
   -18.1465 -18.1408 -18.1375 -18.1027 -18.0613 -17.9746 -17.9649 -17.8066
   -17.6611 -17.6607 -17.5795 -17.5679 -17.5451 -17.5081 -17.4694 -17.4627
     7.2211   7.5389   7.6620   7.6650   7.7842   7.7879   8.6423   8.6764
     8.8854   8.8886   8.8983   8.9018   9.2801   9.6768   9.6841   9.8574
    10.0586  10.0601  10.7030

          k =-0.3333 0.1925 0.0000 ( 10227 PWs)   bands (ev):

   -40.0965 -40.0932 -40.0755 -39.6301 -39.5989 -39.5874 -18.1733 -18.1401
   -18.1320 -18.0757 -18.0439 -18.0309 -18.0140 -18.0015 -18.0011 -17.8050
   -17.6478 -17.5989 -17.5209 -17.4998 -17.4923 -17.4815 -17.4799 -17.4593
     5.1060   6.3124   6.7978   7.4342   7.7495   7.8319   8.1877   8.3064
     8.7220   9.2741   9.4489   9.5804   9.7013   9.9408  10.0508  10.0719
    10.2988  10.3123  10.6027

          k = 0.0000 0.3849-0.5180 ( 10233 PWs)   bands (ev):

   -40.0920 -40.0903 -40.0716 -39.6282 -39.5955 -39.5853 -18.1600 -18.1402
   -18.1242 -18.1018 -18.0935 -18.0764 -18.0377 -18.0179 -17.9998 -17.7945
   -17.6443 -17.6257 -17.5618 -17.5267 -17.5191 -17.4990 -17.4743 -17.4644
     5.8853   6.9239   7.4313   7.8435   8.0828   8.2826   8.4036   8.4843
     8.7427   8.9183   9.0753   9.1535   9.2766   9.3385   9.3996   9.8314
    10.0246  10.1772  10.2305

          k =-0.3333 0.1925 0.5180 ( 10233 PWs)   bands (ev):

   -40.0924 -40.0898 -40.0717 -39.6281 -39.5960 -39.5850 -18.1632 -18.1346
   -18.1253 -18.1003 -18.0920 -18.0831 -18.0369 -18.0136 -18.0026 -17.7937
   -17.6435 -17.6282 -17.5602 -17.5282 -17.5189 -17.4989 -17.4710 -17.4671
     5.8853   6.9227   7.4325   7.8390   8.0787   8.2865   8.4062   8.4859
     8.7440   8.9178   9.0730   9.1632   9.2725   9.3418   9.3992   9.8224
    10.0223  10.1771  10.2345

          k =-0.3333 0.1925-1.0361 ( 10240 PWs)   bands (ev):

   -40.0883 -40.0865 -40.0679 -39.6261 -39.5931 -39.5826 -18.1783 -18.1685
   -18.1558 -18.1266 -18.1262 -18.1124 -18.0440 -17.9915 -17.9547 -17.8210
   -17.6572 -17.6273 -17.6088 -17.5537 -17.5327 -17.5084 -17.4902 -17.4636
     7.2418   7.4416   7.6201   7.6703   7.8082   8.1101   8.3158   8.5265
     8.8145   8.8949   8.9718   9.0627   9.4320   9.5654   9.7334   9.7910
     9.8786  10.4350  10.7199

          k = 0.3333-0.5774-0.5180 ( 10245 PWs)   bands (ev):

   -40.0916 -40.0907 -40.0717 -39.6286 -39.5955 -39.5850 -18.1553 -18.1485
   -18.1195 -18.0998 -18.0948 -18.0865 -18.0188 -18.0156 -18.0066 -17.8114
   -17.6324 -17.6307 -17.5398 -17.5268 -17.5225 -17.5009 -17.4800 -17.4716
     6.4241   6.6930   6.6937   8.0025   8.1493   8.1529   8.4567   8.7520
     8.7545   8.9269   8.9788   9.0682   9.0757   9.4204   9.4246  10.0144
    10.0241  10.2522  10.2597

     the Fermi energy is     9.3093 ev

!    total energy              =    -594.56348398 Ry
     estimated scf accuracy    <       0.00000040 Ry
     smearing contrib. (-TS)   =      -0.00920410 Ry
     internal energy E=F+TS    =    -594.55427988 Ry

     The total energy is F=E-TS. E is the sum of the following terms:
     one-electron contribution =    -196.99051453 Ry
     hartree contribution      =     112.52686947 Ry
     xc contribution           =    -105.48587628 Ry
     ewald contribution        =    -404.60475854 Ry

     convergence has been achieved in  12 iterations

     negative rho (up, down):  3.718E-01 0.000E+00

     Forces acting on atoms (cartesian axes, Ry/au):

     atom    1 type  1   force =    -0.00574486   -0.00111298   -0.00100168
     atom    2 type  1   force =     0.00190856   -0.00553168   -0.00100168
     atom    3 type  1   force =     0.00310508    0.00537816   -0.00099996
     atom    4 type  1   force =    -0.00794171    0.00021796    0.00099032
     atom    5 type  1   force =     0.00415961   -0.00676875    0.00099032
     atom    6 type  1   force =     0.00451332    0.00781729    0.00102267

     Total force =     0.017910     Total SCF correction =     0.000687

     BFGS Geometry Optimization
     Energy error            =      3.2E-04 Ry
     Gradient error          =      7.9E-03 Ry/Bohr

     number of scf cycles    =   1
     number of bfgs steps    =   0

     energy             new  =    -594.5634839816 Ry

     new trust radius        =       0.0090843783 bohr
     new conv_thr            =       0.0000010000 Ry


ATOMIC_POSITIONS (angstrom)
Zr               1.8328899535       -0.0005889637       -0.0005300644
Zr              -0.9169550343        1.5870347607       -0.0005300644
Zr               2.9408801380        5.0937539985       -0.0005291561
Zr               4.5654714275        0.0001153376        1.8567680549
Zr              -2.2826358285        3.9538721342        1.8567680549
Zr               1.5747533437        2.7275527327        1.8567851749



     Writing config-only to output data dir ./tmp/Zr6NiTe2.save/ :
     XML data file
     NEW-OLD atomic charge density approx. for the potential

     negative rho (up, down):  3.721E-01 0.000E+00

     total cpu time spent up to now is      399.6 secs

     Self-consistent Calculation

     iteration #  1     ecut=    60.00 Ry     beta= 0.40
     Davidson diagonalization with overlap
     ethr =  1.00E-06,  avg # of iterations =  4.0

     Threshold (ethr) on eigenvalues was too large:
     Diagonalizing with lowered threshold

     Davidson diagonalization with overlap
     ethr =  1.94E-08,  avg # of iterations =  6.1

     negative rho (up, down):  3.721E-01 0.000E+00

     total cpu time spent up to now is      480.2 secs

     total energy              =    -594.56378850 Ry
     estimated scf accuracy    <       0.00001476 Ry

     iteration #  2     ecut=    60.00 Ry     beta= 0.40
     Davidson diagonalization with overlap
     ethr =  2.05E-08,  avg # of iterations =  5.1

     negative rho (up, down):  3.721E-01 0.000E+00

     total cpu time spent up to now is      510.2 secs

     total energy              =    -594.56378399 Ry
     estimated scf accuracy    <       0.00010327 Ry

     iteration #  3     ecut=    60.00 Ry     beta= 0.40
     Davidson diagonalization with overlap
     ethr =  2.05E-08,  avg # of iterations =  5.1

     negative rho (up, down):  3.721E-01 0.000E+00

     total cpu time spent up to now is      538.6 secs

     total energy              =    -594.56379219 Ry
     estimated scf accuracy    <       0.00000257 Ry

     iteration #  4     ecut=    60.00 Ry     beta= 0.40
     Davidson diagonalization with overlap
     ethr =  3.57E-09,  avg # of iterations =  5.3

     negative rho (up, down):  3.721E-01 0.000E+00

     total cpu time spent up to now is      568.7 secs

     total energy              =    -594.56379147 Ry
     estimated scf accuracy    <       0.00002346 Ry

     iteration #  5     ecut=    60.00 Ry     beta= 0.40
     Davidson diagonalization with overlap
     ethr =  3.57E-09,  avg # of iterations =  5.1

     negative rho (up, down):  3.721E-01 0.000E+00

     total cpu time spent up to now is      595.4 secs

     End of self-consistent calculation

          k = 0.0000 0.0000 0.0000 ( 10193 PWs)   bands (ev):

   -40.1011 -40.0963 -40.0791 -39.6265 -39.5962 -39.5859 -18.1902 -18.1277
   -18.1162 -18.0684 -18.0463 -18.0430 -18.0376 -18.0132 -18.0001 -17.7451
   -17.6770 -17.6753 -17.5095 -17.4960 -17.4912 -17.4815 -17.4464 -17.4415
     4.6445   7.3702   7.3703   7.4043   7.4925   7.4963   8.2661   8.5137
     8.9158   8.9444   9.2261   9.5960   9.7286   9.7330   9.7685   9.7833
     9.9836  10.4542  10.4615

          k = 0.0000 0.0000 0.5180 ( 10223 PWs)   bands (ev):

   -40.0965 -40.0932 -40.0756 -39.6253 -39.5932 -39.5828 -18.1705 -18.1311
   -18.1212 -18.1057 -18.1043 -18.0928 -18.0251 -18.0195 -18.0091 -17.7783
   -17.6421 -17.6400 -17.5726 -17.5305 -17.5211 -17.4925 -17.4598 -17.4538
     5.4922   7.8353   7.8425   7.9116   8.0060   8.0079   8.2126   8.3565
     8.7123   9.0270   9.0421   9.1459   9.1488   9.5668   9.5809   9.5978
     9.8613  10.2059  10.2064

          k = 0.0000 0.0000-1.0361 ( 10170 PWs)   bands (ev):

   -40.0920 -40.0901 -40.0719 -39.6241 -39.5902 -39.5797 -18.1808 -18.1745
   -18.1511 -18.1383 -18.1358 -18.1279 -18.0113 -18.0076 -17.9584 -17.8235
   -17.6410 -17.6205 -17.6147 -17.5321 -17.5248 -17.5060 -17.4963 -17.4850
     7.3274   7.4186   7.7486   7.7584   7.9931   7.9961   8.0548   8.1420
     8.1699   9.2900   9.2970   9.5125   9.5254   9.5919  10.0477  10.1122
    10.1225  10.1763  10.1953

          k = 0.0000 0.3849 0.0000 ( 10227 PWs)   bands (ev):

   -40.0997 -40.0973 -40.0793 -39.6284 -39.5951 -39.5852 -18.1744 -18.1459
   -18.1331 -18.0780 -18.0479 -18.0340 -18.0185 -18.0039 -18.0015 -17.8078
   -17.6458 -17.5954 -17.5225 -17.4908 -17.4897 -17.4835 -17.4826 -17.4515
     5.1063   6.3130   6.7958   7.4359   7.7499   7.8338   8.1953   8.3036
     8.7241   9.2852   9.4457   9.5897   9.6940   9.9299  10.0458  10.0680
    10.2978  10.3117  10.5894

          k = 0.0000 0.3849 0.5180 ( 10233 PWs)   bands (ev):

   -40.0956 -40.0939 -40.0757 -39.6262 -39.5927 -39.5825 -18.1630 -18.1430
   -18.1271 -18.1048 -18.0964 -18.0796 -18.0399 -18.0202 -18.0021 -17.7954
   -17.6438 -17.6255 -17.5603 -17.5248 -17.5172 -17.4957 -17.4706 -17.4606
     5.8852   6.9239   7.4316   7.8427   8.0818   8.2828   8.4049   8.4839
     8.7447   8.9173   9.0761   9.1523   9.2767   9.3366   9.3986   9.8335
    10.0291  10.1776  10.2335

          k = 0.0000 0.3849-1.0361 ( 10240 PWs)   bands (ev):

   -40.0915 -40.0906 -40.0719 -39.6240 -39.5903 -39.5797 -18.1832 -18.1691
   -18.1541 -18.1381 -18.1292 -18.1119 -18.0425 -18.0020 -17.9521 -17.8211
   -17.6561 -17.6304 -17.6093 -17.5468 -17.5358 -17.5049 -17.4792 -17.4640
     7.2409   7.4407   7.6195   7.6773   7.8131   8.1125   8.3123   8.5172
     8.8128   8.9030   8.9641   9.0604   9.4330   9.5636   9.7151   9.7790
     9.8942  10.4298  10.7431

          k = 0.3333 0.5774 0.0000 ( 10290 PWs)   bands (ev):

   -40.0989 -40.0980 -40.0795 -39.6291 -39.5951 -39.5846 -18.1645 -18.1580
   -18.1367 -18.0534 -18.0510 -18.0305 -18.0251 -18.0235 -18.0077 -17.7972
   -17.6124 -17.6085 -17.5265 -17.4912 -17.4894 -17.4807 -17.4799 -17.4708
     5.7617   6.0193   6.0193   7.4156   7.8100   7.8104   8.3010   8.3056
     8.8214   9.3344   9.4794   9.4965   9.6857   9.9888   9.9920   9.9921
    10.3724  10.3793  10.6094

          k = 0.3333 0.5774 0.5180 ( 10245 PWs)   bands (ev):

   -40.0952 -40.0943 -40.0757 -39.6265 -39.5927 -39.5822 -18.1582 -18.1515
   -18.1225 -18.1021 -18.0978 -18.0891 -18.0225 -18.0178 -18.0089 -17.8117
   -17.6322 -17.6303 -17.5389 -17.5254 -17.5207 -17.4974 -17.4758 -17.4675
     6.4249   6.6938   6.6941   8.0020   8.1515   8.1546   8.4587   8.7613
     8.7630   8.9209   8.9770   9.0598   9.0672   9.4159   9.4200  10.0159
    10.0251  10.2488  10.2589

          k = 0.3333 0.5774-1.0361 ( 10248 PWs)   bands (ev):

   -40.0915 -40.0906 -40.0720 -39.6240 -39.5903 -39.5797 -18.1717 -18.1652
   -18.1495 -18.1439 -18.1406 -18.1061 -18.0627 -17.9772 -17.9676 -17.8075
   -17.6605 -17.6598 -17.5779 -17.5662 -17.5448 -17.5043 -17.4654 -17.4588
     7.2196   7.5396   7.6608   7.6636   7.7868   7.7903   8.6357   8.6796
     8.8856   8.8891   8.8967   8.9005   9.2793   9.6772   9.6839   9.8582
    10.0526  10.0540  10.7003

          k =-0.3333 0.1925 0.0000 ( 10227 PWs)   bands (ev):

   -40.1001 -40.0968 -40.0795 -39.6281 -39.5961 -39.5846 -18.1762 -18.1427
   -18.1349 -18.0778 -18.0459 -18.0341 -18.0175 -18.0048 -18.0037 -17.8056
   -17.6470 -17.5992 -17.5197 -17.4976 -17.4889 -17.4793 -17.4762 -17.4556
     5.1061   6.3128   6.7983   7.4346   7.7500   7.8323   8.1920   8.3074
     8.7235   9.2692   9.4500   9.5827   9.6984   9.9369  10.0517  10.0709
    10.3023  10.3120  10.5971

          k = 0.0000 0.3849-0.5180 ( 10233 PWs)   bands (ev):

   -40.0956 -40.0939 -40.0757 -39.6262 -39.5927 -39.5825 -18.1630 -18.1430
   -18.1270 -18.1048 -18.0966 -18.0794 -18.0399 -18.0202 -18.0021 -17.7954
   -17.6438 -17.6255 -17.5602 -17.5250 -17.5172 -17.4957 -17.4705 -17.4606
     5.8852   6.9239   7.4316   7.8427   8.0818   8.2829   8.4048   8.4841
     8.7447   8.9173   9.0760   9.1524   9.2766   9.3366   9.3985   9.8336
    10.0291  10.1777  10.2335

          k =-0.3333 0.1925 0.5180 ( 10233 PWs)   bands (ev):

   -40.0960 -40.0935 -40.0757 -39.6260 -39.5932 -39.5822 -18.1662 -18.1373
   -18.1283 -18.1034 -18.0950 -18.0860 -18.0392 -18.0159 -18.0049 -17.7947
   -17.6429 -17.6282 -17.5588 -17.5261 -17.5172 -17.4955 -17.4672 -17.4634
     5.8851   6.9227   7.4328   7.8384   8.0780   8.2864   8.4072   8.4855
     8.7459   8.9168   9.0736   9.1617   9.2726   9.3398   9.3982   9.8255
    10.0271  10.1778  10.2376

          k =-0.3333 0.1925-1.0361 ( 10240 PWs)   bands (ev):

   -40.0920 -40.0901 -40.0720 -39.6240 -39.5903 -39.5797 -18.1809 -18.1710
   -18.1588 -18.1299 -18.1292 -18.1157 -18.0459 -17.9940 -17.9574 -17.8215
   -17.6567 -17.6271 -17.6075 -17.5524 -17.5317 -17.5046 -17.4857 -17.4597
     7.2408   7.4399   7.6200   7.6718   7.8073   8.1118   8.3120   8.5229
     8.8126   8.8995   8.9712   9.0627   9.4337   9.5704   9.7319   9.7853
     9.8832  10.4301  10.7311

          k = 0.3333-0.5774-0.5180 ( 10245 PWs)   bands (ev):

   -40.0952 -40.0943 -40.0757 -39.6265 -39.5927 -39.5822 -18.1581 -18.1513
   -18.1225 -18.1026 -18.0980 -18.0893 -18.0217 -18.0178 -18.0088 -17.8120
   -17.6322 -17.6302 -17.5389 -17.5253 -17.5206 -17.4974 -17.4758 -17.4676
     6.4241   6.6933   6.6936   7.9996   8.1503   8.1534   8.4576   8.7554
     8.7572   8.9259   8.9781   9.0676   9.0746   9.4179   9.4219  10.0178
    10.0270  10.2506  10.2621

     the Fermi energy is     9.3079 ev

!    total energy              =    -594.56379254 Ry
     estimated scf accuracy    <       0.00000047 Ry
     smearing contrib. (-TS)   =      -0.00917206 Ry
     internal energy E=F+TS    =    -594.55462048 Ry

     The total energy is F=E-TS. E is the sum of the following terms:
     one-electron contribution =    -196.98410637 Ry
     hartree contribution      =     112.52148789 Ry
     xc contribution           =    -105.48521433 Ry
     ewald contribution        =    -404.60678767 Ry

     convergence has been achieved in   5 iterations

     negative rho (up, down):  3.721E-01 0.000E+00

     Forces acting on atoms (cartesian axes, Ry/au):

     atom    1 type  1   force =    -0.00515377   -0.00113698   -0.00087818
     atom    2 type  1   force =     0.00159223   -0.00503178   -0.00087818
     atom    3 type  1   force =     0.00284866    0.00493402   -0.00087902
     atom    4 type  1   force =    -0.00738534    0.00008884    0.00086982
     atom    5 type  1   force =     0.00376961   -0.00635147    0.00086982
     atom    6 type  1   force =     0.00432861    0.00749737    0.00089573

     Total force =     0.016639     Total SCF correction =     0.001808
     SCF correction compared to forces is large: reduce conv_thr to get better values
     Energy error            =      3.1E-04 Ry
     Gradient error          =      7.5E-03 Ry/Bohr

     number of scf cycles    =   2
     number of bfgs steps    =   1

     energy             old  =    -594.5634839816 Ry
     energy             new  =    -594.5637925419 Ry

     CASE: energy            _new < energy            _old


     WARNING: bfgs curvature condition failed, Theta= 0.861
     new trust radius        =       0.0099928161 bohr
     new conv_thr            =       0.0000000309 Ry


ATOMIC_POSITIONS (angstrom)
Zr               1.8296968321       -0.0012672950       -0.0010780077
Zr              -0.9159459257        1.5839302707       -0.0010780077
Zr               2.9426331973        5.0967903862       -0.0010771737
Zr               4.5609448324        0.0001904899        1.8573104769
Zr              -2.2803074471        3.9499895640        1.8573104769
Zr               1.5773825111        2.7321065841        1.8573442354



     Writing config-only to output data dir ./tmp/Zr6NiTe2.save/ :
     XML data file
     NEW-OLD atomic charge density approx. for the potential

     negative rho (up, down):  3.723E-01 0.000E+00

     total cpu time spent up to now is      602.1 secs

     Self-consistent Calculation

     iteration #  1     ecut=    60.00 Ry     beta= 0.40
     Davidson diagonalization with overlap
     ethr =  1.00E-06,  avg # of iterations =  4.0

     Threshold (ethr) on eigenvalues was too large:
     Diagonalizing with lowered threshold

     Davidson diagonalization with overlap
     ethr =  7.96E-08,  avg # of iterations =  4.4

     negative rho (up, down):  3.723E-01 0.000E+00

     total cpu time spent up to now is      672.8 secs

     total energy              =    -594.56406470 Ry
     estimated scf accuracy    <       0.00007222 Ry

     iteration #  2     ecut=    60.00 Ry     beta= 0.40
     Davidson diagonalization with overlap
     ethr =  1.00E-07,  avg # of iterations =  5.1

     negative rho (up, down):  3.723E-01 0.000E+00

     total cpu time spent up to now is      703.7 secs

     total energy              =    -594.56404172 Ry
     estimated scf accuracy    <       0.00074062 Ry

     iteration #  3     ecut=    60.00 Ry     beta= 0.40
     Davidson diagonalization with overlap
     ethr =  1.00E-07,  avg # of iterations =  5.1

     negative rho (up, down):  3.723E-01 0.000E+00

     total cpu time spent up to now is      733.2 secs

     total energy              =    -594.56409763 Ry
     estimated scf accuracy    <       0.00000405 Ry

     iteration #  4     ecut=    60.00 Ry     beta= 0.40
     Davidson diagonalization with overlap
     ethr =  5.62E-09,  avg # of iterations =  5.1

     negative rho (up, down):  3.723E-01 0.000E+00

     total cpu time spent up to now is      762.3 secs

     total energy              =    -594.56409782 Ry
     estimated scf accuracy    <       0.00002122 Ry

     iteration #  5     ecut=    60.00 Ry     beta= 0.40
     Davidson diagonalization with overlap
     ethr =  5.62E-09,  avg # of iterations =  4.6

     negative rho (up, down):  3.723E-01 0.000E+00

     total cpu time spent up to now is      788.5 secs

     total energy              =    -594.56409901 Ry
     estimated scf accuracy    <       0.00000309 Ry

     iteration #  6     ecut=    60.00 Ry     beta= 0.40
     Davidson diagonalization with overlap
     ethr =  4.29E-09,  avg # of iterations =  2.1

     negative rho (up, down):  3.723E-01 0.000E+00

     total cpu time spent up to now is      811.4 secs

     total energy              =    -594.56409922 Ry
     estimated scf accuracy    <       0.00000048 Ry

     iteration #  7     ecut=    60.00 Ry     beta= 0.40
     Davidson diagonalization with overlap
     ethr =  6.69E-10,  avg # of iterations =  4.3

     negative rho (up, down):  3.723E-01 0.000E+00

     total cpu time spent up to now is      837.7 secs

     total energy              =    -594.56409929 Ry
     estimated scf accuracy    <       0.00000011 Ry

     iteration #  8     ecut=    60.00 Ry     beta= 0.40
     Davidson diagonalization with overlap
     ethr =  1.51E-10,  avg # of iterations =  3.7

     negative rho (up, down):  3.723E-01 0.000E+00

     total cpu time spent up to now is      862.3 secs

     total energy              =    -594.56409929 Ry
     estimated scf accuracy    <       0.00000005 Ry

     iteration #  9     ecut=    60.00 Ry     beta= 0.40
     Davidson diagonalization with overlap
     ethr =  7.25E-11,  avg # of iterations =  3.4

     negative rho (up, down):  3.723E-01 0.000E+00

     total cpu time spent up to now is      886.2 secs

     End of self-consistent calculation

          k = 0.0000 0.0000 0.0000 ( 10193 PWs)   bands (ev):

   -40.1028 -40.0979 -40.0830 -39.6256 -39.5947 -39.5850 -18.1917 -18.1290
   -18.1190 -18.0694 -18.0465 -18.0449 -18.0390 -18.0151 -18.0037 -17.7474
   -17.6774 -17.6758 -17.5085 -17.4959 -17.4907 -17.4796 -17.4435 -17.4391
     4.6445   7.3719   7.3719   7.4046   7.4946   7.4984   8.2665   8.5162
     8.9158   8.9434   9.2135   9.5958   9.7240   9.7276   9.7697   9.7845
     9.9912  10.4600  10.4654

          k = 0.0000 0.0000 0.5180 ( 10223 PWs)   bands (ev):

   -40.0982 -40.0949 -40.0795 -39.6243 -39.5917 -39.5819 -18.1723 -18.1323
   -18.1237 -18.1070 -18.1061 -18.0957 -18.0258 -18.0208 -18.0108 -17.7802
   -17.6429 -17.6410 -17.5727 -17.5291 -17.5203 -17.4903 -17.4571 -17.4516
     5.4920   7.8341   7.8409   7.9106   8.0083   8.0102   8.2118   8.3561
     8.7052   9.0316   9.0462   9.1445   9.1472   9.5644   9.5793   9.5956
     9.8692  10.2122  10.2134

          k = 0.0000 0.0000-1.0361 ( 10170 PWs)   bands (ev):

   -40.0937 -40.0918 -40.0759 -39.6231 -39.5887 -39.5788 -18.1819 -18.1764
   -18.1530 -18.1393 -18.1390 -18.1305 -18.0125 -18.0091 -17.9595 -17.8253
   -17.6412 -17.6213 -17.6161 -17.5317 -17.5248 -17.5032 -17.4926 -17.4823
     7.3271   7.4166   7.7460   7.7551   7.9944   7.9977   8.0524   8.1349
     8.1671   9.2960   9.3025   9.5218   9.5338   9.6012  10.0526  10.1131
    10.1233  10.1753  10.1936

          k = 0.0000 0.3849 0.0000 ( 10227 PWs)   bands (ev):

   -40.1014 -40.0990 -40.0832 -39.6274 -39.5936 -39.5844 -18.1759 -18.1471
   -18.1354 -18.0794 -18.0487 -18.0359 -18.0204 -18.0074 -18.0029 -17.8094
   -17.6463 -17.5966 -17.5221 -17.4901 -17.4872 -17.4829 -17.4799 -17.4490
     5.1064   6.3137   6.7964   7.4361   7.7508   7.8344   8.1990   8.3056
     8.7255   9.2794   9.4470   9.5919   9.6912   9.9262  10.0474  10.0673
    10.2960  10.3173  10.5826

          k = 0.0000 0.3849 0.5180 ( 10233 PWs)   bands (ev):

   -40.0973 -40.0956 -40.0796 -39.6252 -39.5912 -39.5816 -18.1648 -18.1442
   -18.1292 -18.1067 -18.0984 -18.0824 -18.0412 -18.0211 -18.0036 -17.7973
   -17.6445 -17.6265 -17.5598 -17.5243 -17.5169 -17.4934 -17.4677 -17.4582
     5.8850   6.9239   7.4318   7.8418   8.0807   8.2831   8.4062   8.4837
     8.7470   8.9161   9.0768   9.1510   9.2768   9.3347   9.3974   9.8363
    10.0340  10.1784  10.2368

          k = 0.0000 0.3849-1.0361 ( 10240 PWs)   bands (ev):

   -40.0932 -40.0922 -40.0759 -39.6230 -39.5887 -39.5788 -18.1846 -18.1709
   -18.1558 -18.1393 -18.1319 -18.1145 -18.0434 -18.0030 -17.9538 -17.8230
   -17.6567 -17.6313 -17.6090 -17.5469 -17.5358 -17.5022 -17.4762 -17.4611
     7.2400   7.4390   7.6195   7.6786   7.8116   8.1144   8.3085   8.5136
     8.8108   8.9078   8.9641   9.0607   9.4345   9.5686   9.7135   9.7740
     9.8997  10.4252  10.7554

          k = 0.3333 0.5774 0.0000 ( 10290 PWs)   bands (ev):

   -40.1005 -40.0996 -40.0834 -39.6282 -39.5935 -39.5837 -18.1657 -18.1596
   -18.1388 -18.0541 -18.0519 -18.0327 -18.0269 -18.0253 -18.0114 -17.7988
   -17.6129 -17.6093 -17.5264 -17.4891 -17.4885 -17.4803 -17.4768 -17.4685
     5.7619   6.0197   6.0199   7.4151   7.8104   7.8108   8.3051   8.3089
     8.8216   9.3259   9.4827   9.4990   9.6898   9.9829   9.9917   9.9927
    10.3684  10.3761  10.6213

          k = 0.3333 0.5774 0.5180 ( 10245 PWs)   bands (ev):

   -40.0968 -40.0959 -40.0797 -39.6256 -39.5911 -39.5813 -18.1594 -18.1533
   -18.1245 -18.1037 -18.0997 -18.0919 -18.0240 -18.0184 -18.0108 -17.8134
   -17.6328 -17.6311 -17.5385 -17.5254 -17.5205 -17.4950 -17.4725 -17.4650
     6.4248   6.6939   6.6942   7.9982   8.1523   8.1550   8.4596   8.7642
     8.7655   8.9202   8.9766   9.0601   9.0670   9.4139   9.4173  10.0203
    10.0286  10.2478  10.2625

          k = 0.3333 0.5774-1.0361 ( 10248 PWs)   bands (ev):

   -40.0932 -40.0923 -40.0760 -39.6230 -39.5887 -39.5788 -18.1729 -18.1671
   -18.1507 -18.1468 -18.1427 -18.1087 -18.0633 -17.9780 -17.9697 -17.8097
   -17.6610 -17.6603 -17.5768 -17.5661 -17.5457 -17.5016 -17.4623 -17.4563
     7.2180   7.5403   7.6594   7.6623   7.7896   7.7929   8.6284   8.6832
     8.8860   8.8896   8.8953   8.8993   9.2785   9.6773   9.6834   9.8597
    10.0463  10.0480  10.6991

          k =-0.3333 0.1925 0.0000 ( 10227 PWs)   bands (ev):

   -40.1018 -40.0985 -40.0834 -39.6271 -39.5945 -39.5837 -18.1777 -18.1436
   -18.1375 -18.0791 -18.0470 -18.0360 -18.0193 -18.0084 -18.0048 -17.8074
   -17.6474 -17.6002 -17.5196 -17.4965 -17.4865 -17.4790 -17.4738 -17.4528
     5.1062   6.3133   6.7992   7.4349   7.7507   7.8328   8.1963   8.3088
     8.7248   9.2642   9.4512   9.5853   9.6958   9.9329  10.0526  10.0700
    10.3013  10.3160  10.5907

          k = 0.0000 0.3849-0.5180 ( 10233 PWs)   bands (ev):

   -40.0973 -40.0956 -40.0796 -39.6252 -39.5912 -39.5816 -18.1648 -18.1442
   -18.1291 -18.1067 -18.0985 -18.0823 -18.0412 -18.0211 -18.0036 -17.7973
   -17.6445 -17.6265 -17.5597 -17.5244 -17.5169 -17.4934 -17.4676 -17.4582
     5.8850   6.9239   7.4318   7.8418   8.0807   8.2832   8.4062   8.4839
     8.7470   8.9162   9.0766   9.1510   9.2767   9.3348   9.3973   9.8364
    10.0341  10.1784  10.2368

          k =-0.3333 0.1925 0.5180 ( 10233 PWs)   bands (ev):

   -40.0977 -40.0951 -40.0797 -39.6251 -39.5916 -39.5813 -18.1677 -18.1386
   -18.1307 -18.1053 -18.0972 -18.0880 -18.0406 -18.0174 -18.0060 -17.7966
   -17.6436 -17.6289 -17.5585 -17.5251 -17.5171 -17.4933 -17.4643 -17.4610
     5.8850   6.9227   7.4331   7.8378   8.0771   8.2863   8.4084   8.4851
     8.7480   8.9156   9.0745   9.1601   9.2728   9.3379   9.3970   9.8287
    10.0326  10.1787  10.2413

          k =-0.3333 0.1925-1.0361 ( 10240 PWs)   bands (ev):

   -40.0937 -40.0918 -40.0760 -39.6230 -39.5887 -39.5788 -18.1826 -18.1727
   -18.1601 -18.1326 -18.1312 -18.1181 -18.0464 -17.9959 -17.9584 -17.8233
   -17.6573 -17.6283 -17.6074 -17.5519 -17.5321 -17.5020 -17.4822 -17.4571
     7.2400   7.4382   7.6199   7.6734   7.8061   8.1137   8.3081   8.5189
     8.8108   8.9046   8.9706   9.0628   9.4355   9.5753   9.7304   9.7799
     9.8883  10.4252  10.7438

          k = 0.3333-0.5774-0.5180 ( 10245 PWs)   bands (ev):

   -40.0968 -40.0959 -40.0797 -39.6256 -39.5911 -39.5813 -18.1593 -18.1531
   -18.1245 -18.1042 -18.0999 -18.0921 -18.0233 -18.0185 -18.0108 -17.8137
   -17.6328 -17.6310 -17.5385 -17.5253 -17.5205 -17.4951 -17.4726 -17.4650
     6.4241   6.6935   6.6937   7.9962   8.1513   8.1539   8.4585   8.7590
     8.7605   8.9246   8.9775   9.0669   9.0735   9.4156   9.4190  10.0219
    10.0302  10.2493  10.2653

     the Fermi energy is     9.3065 ev

!    total energy              =    -594.56409929 Ry
     estimated scf accuracy    <          6.4E-09 Ry
     smearing contrib. (-TS)   =      -0.00913620 Ry
     internal energy E=F+TS    =    -594.55496309 Ry

     The total energy is F=E-TS. E is the sum of the following terms:
     one-electron contribution =    -196.97727755 Ry
     hartree contribution      =     112.51677506 Ry
     xc contribution           =    -105.48454261 Ry
     ewald contribution        =    -404.60991799 Ry

     convergence has been achieved in   9 iterations

     negative rho (up, down):  3.723E-01 0.000E+00

     Forces acting on atoms (cartesian axes, Ry/au):

     atom    1 type  1   force =    -0.00468038   -0.00085521   -0.00076889
     atom    2 type  1   force =     0.00159956   -0.00448093   -0.00076889
     atom    3 type  1   force =     0.00261282    0.00452554   -0.00076783
     atom    4 type  1   force =    -0.00690501    0.00009495    0.00076262
     atom    5 type  1   force =     0.00353473   -0.00593244    0.00076262
     atom    6 type  1   force =     0.00383828    0.00664809    0.00078035

     Total force =     0.015180     Total SCF correction =     0.000253
     Energy error            =      3.1E-04 Ry
     Gradient error          =      6.9E-03 Ry/Bohr

     number of scf cycles    =   3
     number of bfgs steps    =   2

     energy             old  =    -594.5637925419 Ry
     energy             new  =    -594.5640992905 Ry

     CASE: energy            _new < energy            _old

     new trust radius        =       0.0149892241 bohr
     new conv_thr            =       0.0000000307 Ry


ATOMIC_POSITIONS (angstrom)
Zr               1.8248069969       -0.0021491683       -0.0018917397
Zr              -0.9142647328        1.5792546126       -0.0018917397
Zr               2.9453406981        5.1014799152       -0.0018894007
Zr               4.5538373400        0.0003181001        1.8581169272
Zr              -2.2766431872        3.9438981002        1.8581169272
Zr               1.5813268850        2.7389384401        1.8581710255



     Writing config-only to output data dir ./tmp/Zr6NiTe2.save/ :
     XML data file
     NEW-OLD atomic charge density approx. for the potential

     negative rho (up, down):  3.724E-01 0.000E+00

     total cpu time spent up to now is      892.8 secs

     Self-consistent Calculation

     iteration #  1     ecut=    60.00 Ry     beta= 0.40
     Davidson diagonalization with overlap
     ethr =  1.00E-06,  avg # of iterations =  5.6

     Threshold (ethr) on eigenvalues was too large:
     Diagonalizing with lowered threshold

     Davidson diagonalization with overlap
     ethr =  9.34E-08,  avg # of iterations =  4.5

     negative rho (up, down):  3.724E-01 0.000E+00

     total cpu time spent up to now is      969.4 secs

     total energy              =    -594.56448559 Ry
     estimated scf accuracy    <       0.00007574 Ry

     iteration #  2     ecut=    60.00 Ry     beta= 0.40
     Davidson diagonalization with overlap
     ethr =  1.05E-07,  avg # of iterations =  5.0

     negative rho (up, down):  3.724E-01 0.000E+00

     total cpu time spent up to now is     1000.1 secs

     total energy              =    -594.56446309 Ry
     estimated scf accuracy    <       0.00067478 Ry

     iteration #  3     ecut=    60.00 Ry     beta= 0.40
     Davidson diagonalization with overlap
     ethr =  1.05E-07,  avg # of iterations =  4.9

     negative rho (up, down):  3.724E-01 0.000E+00

     total cpu time spent up to now is     1029.1 secs

     total energy              =    -594.56451232 Ry
     estimated scf accuracy    <       0.00001795 Ry

     iteration #  4     ecut=    60.00 Ry     beta= 0.40
     Davidson diagonalization with overlap
     ethr =  2.49E-08,  avg # of iterations =  4.6

     negative rho (up, down):  3.724E-01 0.000E+00

     total cpu time spent up to now is     1055.6 secs

     total energy              =    -594.56451452 Ry
     estimated scf accuracy    <       0.00003884 Ry

     iteration #  5     ecut=    60.00 Ry     beta= 0.40
     Davidson diagonalization with overlap
     ethr =  2.49E-08,  avg # of iterations =  2.5

     negative rho (up, down):  3.724E-01 0.000E+00

     total cpu time spent up to now is     1078.6 secs

     total energy              =    -594.56451629 Ry
     estimated scf accuracy    <       0.00000236 Ry

     iteration #  6     ecut=    60.00 Ry     beta= 0.40
     Davidson diagonalization with overlap
     ethr =  3.27E-09,  avg # of iterations =  4.5

     negative rho (up, down):  3.724E-01 0.000E+00

     total cpu time spent up to now is     1105.0 secs

     total energy              =    -594.56451659 Ry
     estimated scf accuracy    <       0.00000087 Ry

     iteration #  7     ecut=    60.00 Ry     beta= 0.40
     Davidson diagonalization with overlap
     ethr =  1.21E-09,  avg # of iterations =  4.1

     negative rho (up, down):  3.724E-01 0.000E+00

     total cpu time spent up to now is     1129.8 secs

     total energy              =    -594.56451670 Ry
     estimated scf accuracy    <       0.00000034 Ry

     iteration #  8     ecut=    60.00 Ry     beta= 0.40
     Davidson diagonalization with overlap
     ethr =  4.74E-10,  avg # of iterations =  1.9

     negative rho (up, down):  3.724E-01 0.000E+00

     total cpu time spent up to now is     1152.4 secs

     total energy              =    -594.56451671 Ry
     estimated scf accuracy    <       0.00000007 Ry

     iteration #  9     ecut=    60.00 Ry     beta= 0.40
     Davidson diagonalization with overlap
     ethr =  9.71E-11,  avg # of iterations =  3.9

     negative rho (up, down):  3.724E-01 0.000E+00

     total cpu time spent up to now is     1177.0 secs

     End of self-consistent calculation

          k = 0.0000 0.0000 0.0000 ( 10193 PWs)   bands (ev):

   -40.1062 -40.1014 -40.0886 -39.6239 -39.5919 -39.5828 -18.1946 -18.1318
   -18.1233 -18.0714 -18.0484 -18.0476 -18.0412 -18.0188 -18.0089 -17.7508
   -17.6776 -17.6763 -17.5073 -17.4949 -17.4893 -17.4763 -17.4387 -17.4347
     4.6445   7.3740   7.3743   7.4050   7.4980   7.5018   8.2672   8.5201
     8.9158   8.9421   9.1943   9.5954   9.7164   9.7188   9.7721   9.7863
    10.0026  10.4689  10.4720

          k = 0.0000 0.0000 0.5180 ( 10223 PWs)   bands (ev):

   -40.1017 -40.0983 -40.0851 -39.6226 -39.5889 -39.5797 -18.1757 -18.1349
   -18.1276 -18.1098 -18.1093 -18.1000 -18.0277 -18.0232 -18.0134 -17.7829
   -17.6440 -17.6422 -17.5726 -17.5267 -17.5186 -17.4866 -17.4526 -17.4474
     5.4916   7.8321   7.8384   7.9089   8.0118   8.0140   8.2106   8.3553
     8.6943   9.0387   9.0524   9.1426   9.1447   9.5605   9.5766   9.5921
     9.8813  10.2218  10.2239

          k = 0.0000 0.0000-1.0361 ( 10170 PWs)   bands (ev):

   -40.0972 -40.0952 -40.0816 -39.6214 -39.5858 -39.5766 -18.1842 -18.1793
   -18.1566 -18.1440 -18.1414 -18.1341 -18.0150 -18.0118 -17.9615 -17.8276
   -17.6412 -17.6226 -17.6178 -17.5309 -17.5244 -17.4986 -17.4864 -17.4773
     7.3267   7.4136   7.7419   7.7502   7.9963   8.0002   8.0487   8.1241
     8.1629   9.3050   9.3111   9.5356   9.5467   9.6157  10.0601  10.1144
    10.1245  10.1735  10.1909

          k = 0.0000 0.3849 0.0000 ( 10227 PWs)   bands (ev):

   -40.1049 -40.1024 -40.0889 -39.6257 -39.5908 -39.5822 -18.1789 -18.1497
   -18.1388 -18.0818 -18.0505 -18.0394 -18.0241 -18.0125 -18.0054 -17.8117
   -17.6470 -17.5983 -17.5214 -17.4886 -17.4832 -17.4816 -17.4748 -17.4446
     5.1066   6.3147   6.7973   7.4363   7.7521   7.8354   8.2048   8.3086
     8.7277   9.2705   9.4489   9.5953   9.6866   9.9204  10.0494  10.0662
    10.2919  10.3266  10.5722

          k = 0.0000 0.3849 0.5180 ( 10233 PWs)   bands (ev):

   -40.1008 -40.0991 -40.0852 -39.6235 -39.5883 -39.5794 -18.1680 -18.1467
   -18.1325 -18.1100 -18.1018 -18.0867 -18.0436 -18.0231 -18.0061 -17.8000
   -17.6453 -17.6277 -17.5588 -17.5231 -17.5158 -17.4895 -17.4627 -17.4537
     5.8848   6.9239   7.4322   7.8404   8.0790   8.2835   8.4083   8.4835
     8.7505   8.9143   9.0778   9.1489   9.2770   9.3318   9.3955   9.8406
    10.0417  10.1794  10.2414

          k = 0.0000 0.3849-1.0361 ( 10240 PWs)   bands (ev):

   -40.0967 -40.0957 -40.0816 -39.6213 -39.5859 -39.5767 -18.1873 -18.1740
   -18.1591 -18.1419 -18.1363 -18.1185 -18.0452 -18.0052 -17.9567 -17.8256
   -17.6574 -17.6325 -17.6082 -17.5466 -17.5354 -17.4977 -17.4710 -17.4561
     7.2387   7.4363   7.6194   7.6806   7.8092   8.1172   8.3028   8.5080
     8.8074   8.9153   8.9642   9.0610   9.4367   9.5762   9.7108   9.7658
     9.9082  10.4178  10.7734

          k = 0.3333 0.5774 0.0000 ( 10290 PWs)   bands (ev):

   -40.1040 -40.1030 -40.0891 -39.6265 -39.5907 -39.5816 -18.1683 -18.1627
   -18.1419 -18.0558 -18.0538 -18.0363 -18.0305 -18.0287 -18.0167 -17.8011
   -17.6136 -17.6102 -17.5259 -17.4867 -17.4854 -17.4790 -17.4715 -17.4642
     5.7622   6.0203   6.0209   7.4143   7.8111   7.8113   8.3115   8.3142
     8.8219   9.3128   9.4877   9.5027   9.6962   9.9737   9.9910   9.9931
    10.3626  10.3711  10.6395

          k = 0.3333 0.5774 0.5180 ( 10245 PWs)   bands (ev):

   -40.1003 -40.0994 -40.0854 -39.6239 -39.5883 -39.5791 -18.1620 -18.1564
   -18.1279 -18.1069 -18.1031 -18.0960 -18.0269 -18.0201 -18.0137 -17.8159
   -17.6337 -17.6319 -17.5381 -17.5246 -17.5196 -17.4910 -17.4671 -17.4603
     6.4248   6.6942   6.6942   7.9924   8.1536   8.1557   8.4610   8.7686
     8.7693   8.9191   8.9757   9.0606   9.0667   9.4105   9.4134  10.0267
    10.0339  10.2462  10.2680

          k = 0.3333 0.5774-1.0361 ( 10248 PWs)   bands (ev):

   -40.0966 -40.0957 -40.0816 -39.6213 -39.5859 -39.5767 -18.1753 -18.1701
   -18.1533 -18.1512 -18.1462 -18.1126 -18.0645 -17.9801 -17.9729 -17.8128
   -17.6616 -17.6608 -17.5751 -17.5653 -17.5467 -17.4972 -17.4572 -17.4516
     7.2157   7.5412   7.6574   7.6601   7.7938   7.7969   8.6171   8.6887
     8.8861   8.8903   8.8936   8.8975   9.2772   9.6773   9.6826   9.8618
    10.0367  10.0386  10.6976

          k =-0.3333 0.1925 0.0000 ( 10227 PWs)   bands (ev):

   -40.1052 -40.1019 -40.0890 -39.6255 -39.5917 -39.5816 -18.1806 -18.1459
   -18.1414 -18.0815 -18.0490 -18.0396 -18.0229 -18.0136 -18.0071 -17.8099
   -17.6477 -17.6016 -17.5193 -17.4944 -17.4827 -17.4778 -17.4693 -17.4480
     5.1064   6.3142   6.8003   7.4353   7.7518   7.8336   8.2030   8.3110
     8.7269   9.2563   9.4528   9.5892   9.6915   9.9267  10.0541  10.0686
    10.2964  10.3254  10.5807

          k = 0.0000 0.3849-0.5180 ( 10233 PWs)   bands (ev):

   -40.1008 -40.0991 -40.0852 -39.6235 -39.5883 -39.5794 -18.1680 -18.1467
   -18.1324 -18.1101 -18.1019 -18.0867 -18.0436 -18.0231 -18.0062 -17.8000
   -17.6453 -17.6277 -17.5588 -17.5232 -17.5158 -17.4895 -17.4626 -17.4537
     5.8848   6.9239   7.4322   7.8404   8.0790   8.2836   8.4082   8.4835
     8.7505   8.9143   9.0777   9.1489   9.2769   9.3319   9.3955   9.8407
    10.0417  10.1795  10.2414

          k =-0.3333 0.1925 0.5180 ( 10233 PWs)   bands (ev):

   -40.1012 -40.0986 -40.0853 -39.6234 -39.5888 -39.5791 -18.1706 -18.1413
   -18.1343 -18.1088 -18.1008 -18.0914 -18.0433 -18.0199 -18.0082 -17.7994
   -17.6444 -17.6300 -17.5579 -17.5233 -17.5164 -17.4894 -17.4594 -17.4565
     5.8848   6.9227   7.4336   7.8367   8.0757   8.2863   8.4103   8.4844
     8.7512   8.9137   9.0756   9.1575   9.2731   9.3349   9.3953   9.8337
    10.0408  10.1800  10.2463

          k =-0.3333 0.1925-1.0361 ( 10240 PWs)   bands (ev):

   -40.0971 -40.0952 -40.0816 -39.6213 -39.5858 -39.5767 -18.1855 -18.1755
   -18.1629 -18.1368 -18.1346 -18.1218 -18.0479 -17.9990 -17.9606 -17.8259
   -17.6580 -17.6297 -17.6069 -17.5510 -17.5322 -17.4975 -17.4764 -17.4525
     7.2386   7.4354   7.6196   7.6759   7.8044   8.1164   8.3021   8.5128
     8.8079   8.9123   8.9700   9.0629   9.4382   9.5828   9.7276   9.7711
     9.8963  10.4177  10.7628

          k = 0.3333-0.5774-0.5180 ( 10245 PWs)   bands (ev):

   -40.1003 -40.0994 -40.0854 -39.6239 -39.5883 -39.5791 -18.1619 -18.1563
   -18.1279 -18.1073 -18.1032 -18.0962 -18.0263 -18.0202 -18.0137 -17.8161
   -17.6337 -17.6319 -17.5381 -17.5246 -17.5195 -17.4911 -17.4671 -17.4603
     6.4242   6.6938   6.6939   7.9909   8.1528   8.1548   8.4600   8.7645
     8.7653   8.9226   8.9764   9.0659   9.0719   9.4118   9.4147  10.0279
    10.0351  10.2473  10.2702

     the Fermi energy is     9.3044 ev

!    total energy              =    -594.56451671 Ry
     estimated scf accuracy    <          6.8E-09 Ry
     smearing contrib. (-TS)   =      -0.00907864 Ry
     internal energy E=F+TS    =    -594.55543807 Ry

     The total energy is F=E-TS. E is the sum of the following terms:
     one-electron contribution =    -196.96998596 Ry
     hartree contribution      =     112.51084298 Ry
     xc contribution           =    -105.48359390 Ry
     ewald contribution        =    -404.61270119 Ry

     convergence has been achieved in   9 iterations

     negative rho (up, down):  3.724E-01 0.000E+00

     Forces acting on atoms (cartesian axes, Ry/au):

     atom    1 type  1   force =    -0.00382580   -0.00067588   -0.00059796
     atom    2 type  1   force =     0.00132757   -0.00365118   -0.00059796
     atom    3 type  1   force =     0.00220427    0.00381790   -0.00059815
     atom    4 type  1   force =    -0.00603564    0.00004029    0.00059462
     atom    5 type  1   force =     0.00305271   -0.00520688    0.00059462
     atom    6 type  1   force =     0.00327690    0.00567575    0.00060484

     Total force =     0.012945     Total SCF correction =     0.000274
     Energy error            =      4.2E-04 Ry
     Gradient error          =      6.0E-03 Ry/Bohr

     number of scf cycles    =   4
     number of bfgs steps    =   3

     energy             old  =    -594.5640992905 Ry
     energy             new  =    -594.5645167070 Ry

     CASE: energy            _new < energy            _old

     new trust radius        =       0.0224838362 bohr
     new conv_thr            =       0.0000000417 Ry


ATOMIC_POSITIONS (angstrom)
Zr               1.8176263245       -0.0034225261       -0.0030587830
Zr              -0.9117771568        1.5723992890       -0.0030587830
Zr               2.9493793770        5.1084751123       -0.0030552009
Zr               4.5430409238        0.0004718895        1.8592748941
Zr              -2.2711117936        3.9346250242        1.8592748941
Zr               1.5872463250        2.7491912110        1.8593549786



     Writing config-only to output data dir ./tmp/Zr6NiTe2.save/ :
     XML data file
     NEW-OLD atomic charge density approx. for the potential

     negative rho (up, down):  3.729E-01 0.000E+00

     total cpu time spent up to now is     1183.6 secs

     Self-consistent Calculation

     iteration #  1     ecut=    60.00 Ry     beta= 0.40
     Davidson diagonalization with overlap
     c_bands:  1 eigenvalues not converged
     c_bands:  1 eigenvalues not converged
     ethr =  1.00E-06,  avg # of iterations =  8.6

     negative rho (up, down):  3.729E-01 0.000E+00

     total cpu time spent up to now is     1241.9 secs

     total energy              =    -594.56493923 Ry
     estimated scf accuracy    <       0.00015462 Ry

     iteration #  2     ecut=    60.00 Ry     beta= 0.40
     Davidson diagonalization with overlap
     ethr =  2.15E-07,  avg # of iterations =  5.9

     negative rho (up, down):  3.729E-01 0.000E+00

     total cpu time spent up to now is     1278.1 secs

     total energy              =    -594.56490786 Ry
     estimated scf accuracy    <       0.00133760 Ry

     iteration #  3     ecut=    60.00 Ry     beta= 0.40
     Davidson diagonalization with overlap
     ethr =  2.15E-07,  avg # of iterations =  4.9

     negative rho (up, down):  3.729E-01 0.000E+00

     total cpu time spent up to now is     1310.2 secs

     total energy              =    -594.56500657 Ry
     estimated scf accuracy    <       0.00003393 Ry

     iteration #  4     ecut=    60.00 Ry     beta= 0.40
     Davidson diagonalization with overlap
     ethr =  4.71E-08,  avg # of iterations =  4.9

     negative rho (up, down):  3.729E-01 0.000E+00

     total cpu time spent up to now is     1349.8 secs

     total energy              =    -594.56500973 Ry
     estimated scf accuracy    <       0.00009368 Ry

     iteration #  5     ecut=    60.00 Ry     beta= 0.40
     Davidson diagonalization with overlap
     ethr =  4.71E-08,  avg # of iterations =  2.7

     negative rho (up, down):  3.729E-01 0.000E+00

     total cpu time spent up to now is     1382.0 secs

     total energy              =    -594.56501407 Ry
     estimated scf accuracy    <       0.00000513 Ry

     iteration #  6     ecut=    60.00 Ry     beta= 0.40
     Davidson diagonalization with overlap
     ethr =  7.13E-09,  avg # of iterations =  5.0

     negative rho (up, down):  3.729E-01 0.000E+00

     total cpu time spent up to now is     1418.9 secs

     total energy              =    -594.56501489 Ry
     estimated scf accuracy    <       0.00000254 Ry

     iteration #  7     ecut=    60.00 Ry     beta= 0.40
     Davidson diagonalization with overlap
     ethr =  3.52E-09,  avg # of iterations =  3.1

     negative rho (up, down):  3.729E-01 0.000E+00

     total cpu time spent up to now is     1447.7 secs

     total energy              =    -594.56501513 Ry
     estimated scf accuracy    <       0.00000097 Ry

     iteration #  8     ecut=    60.00 Ry     beta= 0.40
     Davidson diagonalization with overlap
     ethr =  1.35E-09,  avg # of iterations =  1.9

     negative rho (up, down):  3.729E-01 0.000E+00

     total cpu time spent up to now is     1470.2 secs

     total energy              =    -594.56501514 Ry
     estimated scf accuracy    <       0.00000022 Ry

     iteration #  9     ecut=    60.00 Ry     beta= 0.40
     Davidson diagonalization with overlap
     ethr =  3.00E-10,  avg # of iterations =  4.4

     negative rho (up, down):  3.729E-01 0.000E+00

     total cpu time spent up to now is     1496.1 secs

     End of self-consistent calculation

          k = 0.0000 0.0000 0.0000 ( 10193 PWs)   bands (ev):

   -40.1112 -40.1063 -40.0966 -39.6219 -39.5878 -39.5797 -18.1988 -18.1358
   -18.1294 -18.0745 -18.0533 -18.0490 -18.0443 -18.0240 -18.0164 -17.7561
   -17.6782 -17.6776 -17.5063 -17.4929 -17.4872 -17.4715 -17.4314 -17.4281
     4.6445   7.3770   7.3775   7.4056   7.5034   7.5072   8.2676   8.5259
     8.9160   8.9401   9.1661   9.5942   9.7043   9.7051   9.7767   9.7897
    10.0195  10.4825  10.4827

          k = 0.0000 0.0000 0.5180 ( 10223 PWs)   bands (ev):

   -40.1067 -40.1032 -40.0932 -39.6205 -39.5848 -39.5766 -18.1805 -18.1385
   -18.1331 -18.1140 -18.1136 -18.1063 -18.0304 -18.0267 -18.0172 -17.7873
   -17.6460 -17.6441 -17.5727 -17.5233 -17.5161 -17.4811 -17.4456 -17.4412
     5.4911   7.8293   7.8347   7.9062   8.0172   8.0198   8.2084   8.3543
     8.6784   9.0491   9.0615   9.1399   9.1410   9.5539   9.5725   9.5868
     9.8994  10.2361  10.2396

          k = 0.0000 0.0000-1.0361 ( 10170 PWs)   bands (ev):

   -40.1022 -40.1001 -40.0897 -39.6192 -39.5817 -39.5735 -18.1875 -18.1836
   -18.1619 -18.1512 -18.1444 -18.1392 -18.0184 -18.0157 -17.9643 -17.8316
   -17.6413 -17.6247 -17.6206 -17.5297 -17.5236 -17.4918 -17.4773 -17.4699
     7.3262   7.4092   7.7361   7.7429   7.9993   8.0042   8.0431   8.1081
     8.1568   9.3181   9.3237   9.5560   9.5654   9.6374  10.0716  10.1162
    10.1260  10.1708  10.1869

          k = 0.0000 0.3849 0.0000 ( 10227 PWs)   bands (ev):

   -40.1098 -40.1073 -40.0969 -39.6236 -39.5868 -39.5791 -18.1833 -18.1534
   -18.1438 -18.0854 -18.0529 -18.0444 -18.0293 -18.0199 -18.0090 -17.8154
   -17.6483 -17.6010 -17.5207 -17.4862 -17.4796 -17.4777 -17.4669 -17.4378
     5.1070   6.3162   6.7986   7.4366   7.7541   7.8367   8.2133   8.3132
     8.7307   9.2572   9.4515   9.6004   9.6799   9.9116  10.0522  10.0644
    10.2847  10.3407  10.5564

          k = 0.0000 0.3849 0.5180 ( 10233 PWs)   bands (ev):

   -40.1057 -40.1040 -40.0934 -39.6214 -39.5843 -39.5763 -18.1727 -18.1503
   -18.1372 -18.1149 -18.1067 -18.0929 -18.0472 -18.0259 -18.0097 -17.8043
   -17.6468 -17.6298 -17.5578 -17.5213 -17.5143 -17.4839 -17.4552 -17.4470
     5.8845   6.9240   7.4328   7.8383   8.0762   8.2841   8.4113   8.4829
     8.7558   8.9115   9.0794   9.1457   9.2773   9.3276   9.3926   9.8472
    10.0532  10.1813  10.2471

          k = 0.0000 0.3849-1.0361 ( 10240 PWs)   bands (ev):

   -40.1016 -40.1006 -40.0898 -39.6191 -39.5818 -39.5735 -18.1913 -18.1783
   -18.1639 -18.1456 -18.1425 -18.1241 -18.0479 -18.0084 -17.9609 -17.8299
   -17.6586 -17.6344 -17.6072 -17.5463 -17.5348 -17.4911 -17.4633 -17.4487
     7.2368   7.4324   7.6192   7.6836   7.8059   8.1213   8.2941   8.4996
     8.8022   8.9264   8.9649   9.0615   9.4400   9.5871   9.7063   9.7536
     9.9209  10.4070  10.7381

          k = 0.3333 0.5774 0.0000 ( 10290 PWs)   bands (ev):

   -40.1089 -40.1079 -40.0972 -39.6244 -39.5867 -39.5785 -18.1721 -18.1673
   -18.1462 -18.0581 -18.0565 -18.0417 -18.0356 -18.0336 -18.0243 -17.8048
   -17.6151 -17.6119 -17.5253 -17.4840 -17.4802 -17.4772 -17.4637 -17.4576
     5.7627   6.0213   6.0225   7.4129   7.8121   7.8122   8.3210   8.3221
     8.8217   9.2933   9.4954   9.5084   9.7069   9.9594   9.9896   9.9930
    10.3542  10.3633  10.6669

          k = 0.3333 0.5774 0.5180 ( 10245 PWs)   bands (ev):

   -40.1052 -40.1043 -40.0935 -39.6218 -39.5842 -39.5760 -18.1657 -18.1610
   -18.1326 -18.1115 -18.1078 -18.1021 -18.0311 -18.0226 -18.0178 -17.8199
   -17.6353 -17.6335 -17.5379 -17.5232 -17.5182 -17.4852 -17.4589 -17.4533
     6.4247   6.6942   6.6948   7.9833   8.1555   8.1567   8.4632   8.7752
     8.7754   8.9172   8.9742   9.0613   9.0664   9.4053   9.4074  10.0360
    10.0414  10.2441  10.2768

          k = 0.3333 0.5774-1.0361 ( 10248 PWs)   bands (ev):

   -40.1016 -40.1006 -40.0898 -39.6191 -39.5818 -39.5736 -18.1788 -18.1746
   -18.1576 -18.1571 -18.1514 -18.1183 -18.0664 -17.9831 -17.9776 -17.8177
   -17.6627 -17.6618 -17.5726 -17.5642 -17.5483 -17.4907 -17.4495 -17.4448
     7.2122   7.5424   7.6545   7.6568   7.8003   7.8029   8.6003   8.6970
     8.8847   8.8903   8.8926   8.8958   9.2752   9.6769   9.6810   9.8653
    10.0225  10.0245  10.6963

          k =-0.3333 0.1925 0.0000 ( 10227 PWs)   bands (ev):

   -40.1101 -40.1068 -40.0971 -39.6234 -39.5876 -39.5785 -18.1847 -18.1492
   -18.1468 -18.0851 -18.0519 -18.0446 -18.0280 -18.0210 -18.0104 -17.8140
   -17.6486 -17.6039 -17.5189 -17.4915 -17.4773 -17.4760 -17.4624 -17.4407
     5.1068   6.3155   6.8019   7.4358   7.7534   7.8347   8.2126   8.3145
     8.7297   9.2443   9.4549   9.5951   9.6852   9.9175  10.0559  10.0662
    10.2876  10.3402  10.5654

          k = 0.0000 0.3849-0.5180 ( 10233 PWs)   bands (ev):

   -40.1057 -40.1040 -40.0934 -39.6214 -39.5843 -39.5763 -18.1727 -18.1503
   -18.1372 -18.1149 -18.1067 -18.0929 -18.0472 -18.0259 -18.0097 -17.8043
   -17.6468 -17.6298 -17.5578 -17.5214 -17.5142 -17.4839 -17.4551 -17.4470
     5.8845   6.9240   7.4328   7.8383   8.0762   8.2841   8.4113   8.4830
     8.7558   8.9115   9.0794   9.1457   9.2772   9.3276   9.3925   9.8472
    10.0532  10.1813  10.2471

          k =-0.3333 0.1925 0.5180 ( 10233 PWs)   bands (ev):

   -40.1061 -40.1034 -40.0935 -39.6213 -39.5847 -39.5760 -18.1749 -18.1456
   -18.1392 -18.1138 -18.1060 -18.0964 -18.0471 -18.0235 -18.0112 -17.8038
   -17.6459 -17.6318 -17.5572 -17.5207 -17.5153 -17.4837 -17.4520 -17.4498
     5.8845   6.9227   7.4343   7.8348   8.0735   8.2863   8.4133   8.4833
     8.7560   8.9108   9.0775   9.1534   9.2737   9.3305   9.3927   9.8412
    10.0530  10.1820  10.2528

          k =-0.3333 0.1925-1.0361 ( 10240 PWs)   bands (ev):

   -40.1021 -40.1001 -40.0898 -39.6191 -39.5817 -39.5736 -18.1899 -18.1794
   -18.1669 -18.1429 -18.1397 -18.1268 -18.0500 -18.0035 -17.9639 -17.8302
   -17.6593 -17.6320 -17.6063 -17.5497 -17.5321 -17.4910 -17.4678 -17.4456
     7.2367   7.4314   7.6190   7.6797   7.8021   8.1202   8.2932   8.5037
     8.8034   8.9239   8.9697   9.0630   9.4422   9.5936   9.7229   9.7579
     9.9085  10.4066  10.7336

          k = 0.3333-0.5774-0.5180 ( 10245 PWs)   bands (ev):

   -40.1052 -40.1043 -40.0935 -39.6218 -39.5842 -39.5760 -18.1656 -18.1610
   -18.1326 -18.1118 -18.1079 -18.1022 -18.0307 -18.0226 -18.0178 -17.8201
   -17.6353 -17.6335 -17.5379 -17.5232 -17.5182 -17.4852 -17.4590 -17.4533
     6.4243   6.6940   6.6945   7.9825   8.1551   8.1562   8.4626   8.7727
     8.7729   8.9193   8.9747   9.0646   9.0696   9.4061   9.4083  10.0366
    10.0421  10.2447  10.2781

     the Fermi energy is     9.3011 ev

!    total energy              =    -594.56501516 Ry
     estimated scf accuracy    <       0.00000001 Ry
     smearing contrib. (-TS)   =      -0.00898937 Ry
     internal energy E=F+TS    =    -594.55602579 Ry

     The total energy is F=E-TS. E is the sum of the following terms:
     one-electron contribution =    -196.96198721 Ry
     hartree contribution      =     112.50358187 Ry
     xc contribution           =    -105.48232883 Ry
     ewald contribution        =    -404.61529162 Ry

     convergence has been achieved in   9 iterations

     negative rho (up, down):  3.729E-01 0.000E+00

     Forces acting on atoms (cartesian axes, Ry/au):

     atom    1 type  1   force =    -0.00246795   -0.00040363   -0.00036306
     atom    2 type  1   force =     0.00088442   -0.00233912   -0.00036306
     atom    3 type  1   force =     0.00151447    0.00262314   -0.00036417
     atom    4 type  1   force =    -0.00463950   -0.00004971    0.00036327
     atom    5 type  1   force =     0.00227670   -0.00404278    0.00036327
     atom    6 type  1   force =     0.00243186    0.00421211    0.00036376

     Total force =     0.009444     Total SCF correction =     0.000274
     Energy error            =      5.0E-04 Ry
     Gradient error          =      4.6E-03 Ry/Bohr

     number of scf cycles    =   5
     number of bfgs steps    =   4

     energy             old  =    -594.5645167070 Ry
     energy             new  =    -594.5650151569 Ry

     CASE: energy            _new < energy            _old

     new trust radius        =       0.0337257543 bohr
     new conv_thr            =       0.0000000464 Ry


ATOMIC_POSITIONS (angstrom)
Zr               1.8072523692       -0.0052275323       -0.0047227408
Zr              -0.9081533603        1.5625126771       -0.0047227408
Zr               2.9553088883        5.1187453272       -0.0047183550
Zr               4.5266646191        0.0006164466        1.8609281451
Zr              -2.2627984511        3.9205150068        1.8609281451
Zr               1.5961299348        2.7645780745        1.8610395464



     Writing config-only to output data dir ./tmp/Zr6NiTe2.save/ :
     XML data file
     NEW-OLD atomic charge density approx. for the potential

     negative rho (up, down):  3.739E-01 0.000E+00

     total cpu time spent up to now is     1502.9 secs

     Self-consistent Calculation

     iteration #  1     ecut=    60.00 Ry     beta= 0.40
     Davidson diagonalization with overlap
     ethr =  1.00E-06,  avg # of iterations =  8.7

     negative rho (up, down):  3.739E-01 0.000E+00

     total cpu time spent up to now is     1566.9 secs

     total energy              =    -594.56531256 Ry
     estimated scf accuracy    <       0.00034059 Ry

     iteration #  2     ecut=    60.00 Ry     beta= 0.40
     Davidson diagonalization with overlap
     ethr =  4.73E-07,  avg # of iterations =  5.8

     negative rho (up, down):  3.739E-01 0.000E+00

     total cpu time spent up to now is     1600.7 secs

     total energy              =    -594.56521338 Ry
     estimated scf accuracy    <       0.00315046 Ry

     iteration #  3     ecut=    60.00 Ry     beta= 0.40
     Davidson diagonalization with overlap
     ethr =  4.73E-07,  avg # of iterations =  5.0

     negative rho (up, down):  3.739E-01 0.000E+00

     total cpu time spent up to now is     1630.1 secs

     total energy              =    -594.56543351 Ry
     estimated scf accuracy    <       0.00011866 Ry

     iteration #  4     ecut=    60.00 Ry     beta= 0.40
     Davidson diagonalization with overlap
     ethr =  1.65E-07,  avg # of iterations =  3.9

     negative rho (up, down):  3.739E-01 0.000E+00

     total cpu time spent up to now is     1656.0 secs

     total energy              =    -594.56545068 Ry
     estimated scf accuracy    <       0.00012777 Ry

     iteration #  5     ecut=    60.00 Ry     beta= 0.40
     Davidson diagonalization with overlap
     ethr =  1.65E-07,  avg # of iterations =  1.2

     negative rho (up, down):  3.739E-01 0.000E+00

     total cpu time spent up to now is     1678.1 secs

     total energy              =    -594.56545608 Ry
     estimated scf accuracy    <       0.00001099 Ry

     iteration #  6     ecut=    60.00 Ry     beta= 0.40
     Davidson diagonalization with overlap
     ethr =  1.53E-08,  avg # of iterations =  3.7

     negative rho (up, down):  3.739E-01 0.000E+00

     total cpu time spent up to now is     1704.0 secs

     total energy              =    -594.56545690 Ry
     estimated scf accuracy    <       0.00000474 Ry

     iteration #  7     ecut=    60.00 Ry     beta= 0.40
     Davidson diagonalization with overlap
     ethr =  6.59E-09,  avg # of iterations =  3.9

     negative rho (up, down):  3.739E-01 0.000E+00

     total cpu time spent up to now is     1730.0 secs

     total energy              =    -594.56545756 Ry
     estimated scf accuracy    <       0.00000085 Ry

     iteration #  8     ecut=    60.00 Ry     beta= 0.40
     Davidson diagonalization with overlap
     ethr =  1.18E-09,  avg # of iterations =  4.1

     negative rho (up, down):  3.739E-01 0.000E+00

     total cpu time spent up to now is     1756.6 secs

     total energy              =    -594.56545765 Ry
     estimated scf accuracy    <       0.00000031 Ry

     iteration #  9     ecut=    60.00 Ry     beta= 0.40
     Davidson diagonalization with overlap
     ethr =  4.32E-10,  avg # of iterations =  2.5

     negative rho (up, down):  3.739E-01 0.000E+00

     total cpu time spent up to now is     1779.7 secs

     total energy              =    -594.56545766 Ry
     estimated scf accuracy    <       0.00000008 Ry

     iteration # 10     ecut=    60.00 Ry     beta= 0.40
     Davidson diagonalization with overlap
     ethr =  1.07E-10,  avg # of iterations =  4.6

     negative rho (up, down):  3.739E-01 0.000E+00

     total cpu time spent up to now is     1806.6 secs

     End of self-consistent calculation

          k = 0.0000 0.0000 0.0000 ( 10193 PWs)   bands (ev):

   -40.1185 -40.1135 -40.1076 -39.6192 -39.5819 -39.5752 -18.2051 -18.1417
   -18.1379 -18.0795 -18.0604 -18.0513 -18.0486 -18.0315 -18.0267 -17.7643
   -17.6800 -17.6798 -17.5056 -17.4892 -17.4841 -17.4644 -17.4204 -17.4182
     4.6448   7.3806   7.3815   7.4062   7.5124   7.5158   8.2671   8.5341
     8.9165   8.9373   9.1254   9.5911   9.6840   9.6851   9.7844   9.7953
    10.0440  10.4999  10.5037

          k = 0.0000 0.0000 0.5180 ( 10223 PWs)   bands (ev):

   -40.1140 -40.1104 -40.1043 -39.6178 -39.5788 -39.5721 -18.1878 -18.1440
   -18.1408 -18.1211 -18.1192 -18.1149 -18.0343 -18.0318 -18.0227 -17.7943
   -17.6493 -17.6474 -17.5729 -17.5186 -17.5127 -17.4729 -17.4349 -17.4317
     5.4904   7.8252   7.8294   7.9018   8.0254   8.0286   8.2043   8.3526
     8.6560   9.0639   9.0740   9.1359   9.1360   9.5427   9.5664   9.5785
     9.9258  10.2570  10.2625

          k = 0.0000 0.0000-1.0361 ( 10170 PWs)   bands (ev):

   -40.1095 -40.1073 -40.1010 -39.6164 -39.5757 -39.5690 -18.1923 -18.1897
   -18.1700 -18.1615 -18.1490 -18.1462 -18.0236 -18.0215 -17.9683 -17.8382
   -17.6416 -17.6282 -17.6248 -17.5278 -17.5224 -17.4822 -17.4639 -17.4588
     7.3253   7.4029   7.7280   7.7326   8.0042   8.0105   8.0344   8.0851
     8.1479   9.3370   9.3419   9.5852   9.5919   9.6697  10.0890  10.1184
    10.1275  10.1666  10.1808

          k = 0.0000 0.3849 0.0000 ( 10227 PWs)   bands (ev):

   -40.1170 -40.1145 -40.1080 -39.6210 -39.5809 -39.5746 -18.1899 -18.1589
   -18.1506 -18.0910 -18.0564 -18.0517 -18.0368 -18.0299 -18.0143 -17.8213
   -17.6510 -17.6054 -17.5198 -17.4827 -17.4765 -17.4701 -17.4549 -17.4277
     5.1076   6.3185   6.8007   7.4368   7.7571   7.8387   8.2256   8.3203
     8.7344   9.2373   9.4547   9.6084   9.6700   9.8983  10.0554  10.0613
    10.2729  10.3604  10.5328

          k = 0.0000 0.3849 0.5180 ( 10233 PWs)   bands (ev):

   -40.1130 -40.1111 -40.1045 -39.6186 -39.5783 -39.5718 -18.1797 -18.1557
   -18.1440 -18.1220 -18.1137 -18.1015 -18.0527 -18.0300 -18.0147 -17.8112
   -17.6496 -17.6332 -17.5567 -17.5186 -17.5119 -17.4755 -17.4438 -17.4369
     5.8842   6.9243   7.4337   7.8348   8.0716   8.2847   8.4158   8.4821
     8.7637   8.9071   9.0819   9.1410   9.2777   9.3215   9.3879   9.8571
    10.0702  10.1843  10.2524

          k = 0.0000 0.3849-1.0361 ( 10240 PWs)   bands (ev):

   -40.1089 -40.1078 -40.1010 -39.6164 -39.5758 -39.5691 -18.1972 -18.1845
   -18.1709 -18.1513 -18.1510 -18.1319 -18.0517 -18.0131 -17.9668 -17.8370
   -17.6609 -17.6378 -17.6059 -17.5455 -17.5336 -17.4816 -17.4520 -17.4376
     7.2342   7.4267   7.6187   7.6883   7.8012   8.1268   8.2817   8.4872
     8.7941   8.9430   8.9671   9.0624   9.4448   9.6019   9.6993   9.7352
     9.9395  10.3914  10.7234

          k = 0.3333 0.5774 0.0000 ( 10290 PWs)   bands (ev):

   -40.1161 -40.1150 -40.1084 -39.6217 -39.5807 -39.5741 -18.1777 -18.1743
   -18.1522 -18.0614 -18.0604 -18.0500 -18.0428 -18.0408 -18.0346 -17.8107
   -17.6179 -17.6150 -17.5247 -17.4801 -17.4744 -17.4727 -17.4518 -17.4476
     5.7636   6.0227   6.0249   7.4106   7.8132   7.8140   8.3340   8.3351
     8.8202   9.2647   9.5072   9.5170   9.7249   9.9368   9.9867   9.9911
    10.3420  10.3508  10.7074

          k = 0.3333 0.5774 0.5180 ( 10245 PWs)   bands (ev):

   -40.1124 -40.1115 -40.1047 -39.6190 -39.5782 -39.5716 -18.1712 -18.1679
   -18.1393 -18.1184 -18.1145 -18.1107 -18.0373 -18.0263 -18.0235 -17.8264
   -17.6382 -17.6363 -17.5382 -17.5206 -17.5161 -17.4768 -17.4468 -17.4429
     6.4247   6.6944   6.6957   7.9693   8.1582   8.1583   8.4670   8.7842
     8.7858   8.9138   8.9715   9.0627   9.0660   9.3973   9.3986  10.0488
    10.0519  10.2417  10.2907

          k = 0.3333 0.5774-1.0361 ( 10248 PWs)   bands (ev):

   -40.1088 -40.1079 -40.1011 -39.6163 -39.5758 -39.5691 -18.1838 -18.1810
   -18.1667 -18.1627 -18.1589 -18.1261 -18.0692 -17.9877 -17.9843 -17.8256
   -17.6650 -17.6637 -17.5691 -17.5622 -17.5505 -17.4813 -17.4379 -17.4346
     7.2074   7.5440   7.6503   7.6520   7.8100   7.8120   8.5755   8.7091
     8.8809   8.8880   8.8930   8.8956   9.2723   9.6754   9.6779   9.8710
    10.0016  10.0038  10.6959

          k =-0.3333 0.1925 0.0000 ( 10227 PWs)   bands (ev):

   -40.1174 -40.1139 -40.1083 -39.6208 -39.5816 -39.5740 -18.1909 -18.1555
   -18.1532 -18.0906 -18.0559 -18.0519 -18.0355 -18.0311 -18.0152 -17.8204
   -17.6505 -17.6079 -17.5187 -17.4870 -17.4734 -17.4698 -17.4517 -17.4298
     5.1075   6.3175   6.8043   7.4363   7.7560   7.8363   8.2264   8.3201
     8.7335   9.2264   9.4575   9.6040   9.6759   9.9036  10.0576  10.0623
    10.2737  10.3610  10.5420

          k = 0.0000 0.3849-0.5180 ( 10233 PWs)   bands (ev):

   -40.1130 -40.1111 -40.1045 -39.6186 -39.5783 -39.5718 -18.1797 -18.1557
   -18.1440 -18.1220 -18.1137 -18.1015 -18.0527 -18.0300 -18.0147 -17.8112
   -17.6496 -17.6332 -17.5567 -17.5186 -17.5119 -17.4755 -17.4438 -17.4369
     5.8842   6.9243   7.4337   7.8348   8.0716   8.2847   8.4158   8.4821
     8.7637   8.9071   9.0819   9.1410   9.2777   9.3215   9.3879   9.8571
    10.0702  10.1843  10.2524

          k =-0.3333 0.1925 0.5180 ( 10233 PWs)   bands (ev):

   -40.1133 -40.1106 -40.1047 -39.6186 -39.5787 -39.5716 -18.1812 -18.1524
   -18.1454 -18.1213 -18.1133 -18.1035 -18.0528 -18.0286 -18.0156 -17.8109
   -17.6485 -17.6351 -17.5564 -17.5169 -17.5136 -17.4754 -17.4412 -17.4393
     5.8843   6.9229   7.4353   7.8318   8.0698   8.2864   8.4179   8.4815
     8.7631   8.9063   9.0803   9.1470   9.2749   9.3240   9.3886   9.8528
    10.0709  10.1853  10.2591

          k =-0.3333 0.1925-1.0361 ( 10240 PWs)   bands (ev):

   -40.1093 -40.1073 -40.1011 -39.6164 -39.5757 -39.5691 -18.1964 -18.1851
   -18.1730 -18.1515 -18.1473 -18.1336 -18.0532 -18.0099 -17.9686 -17.8371
   -17.6619 -17.6357 -17.6055 -17.5477 -17.5317 -17.4816 -17.4550 -17.4353
     7.2340   7.4255   7.6179   7.6856   7.7991   8.1255   8.2802   8.4902
     8.7962   8.9408   8.9703   9.0633   9.4481   9.6083   9.7146   9.7380
     9.9269  10.3906  10.7188

          k = 0.3333-0.5774-0.5180 ( 10245 PWs)   bands (ev):

   -40.1124 -40.1115 -40.1047 -39.6190 -39.5782 -39.5716 -18.1712 -18.1679
   -18.1393 -18.1184 -18.1145 -18.1107 -18.0372 -18.0263 -18.0235 -17.8264
   -17.6382 -17.6363 -17.5382 -17.5206 -17.5161 -17.4768 -17.4468 -17.4429
     6.4246   6.6944   6.6957   7.9692   8.1582   8.1582   8.4669   8.7838
     8.7854   8.9141   8.9715   9.0631   9.0664   9.3974   9.3987  10.0489
    10.0520  10.2417  10.2909

     the Fermi energy is     9.2964 ev

!    total energy              =    -594.56545766 Ry
     estimated scf accuracy    <          6.5E-09 Ry
     smearing contrib. (-TS)   =      -0.00885528 Ry
     internal energy E=F+TS    =    -594.55660238 Ry

     The total energy is F=E-TS. E is the sum of the following terms:
     one-electron contribution =    -196.95540289 Ry
     hartree contribution      =     112.49583544 Ry
     xc contribution           =    -105.48080918 Ry
     ewald contribution        =    -404.61622575 Ry

     convergence has been achieved in  10 iterations

     negative rho (up, down):  3.739E-01 0.000E+00

     Forces acting on atoms (cartesian axes, Ry/au):

     atom    1 type  1   force =    -0.00026471   -0.00006122   -0.00004926
     atom    2 type  1   force =     0.00007934   -0.00025985   -0.00004926
     atom    3 type  1   force =     0.00038778    0.00067166   -0.00005128
     atom    4 type  1   force =    -0.00238119   -0.00017113    0.00005243
     atom    5 type  1   force =     0.00104239   -0.00214774    0.00005243
     atom    6 type  1   force =     0.00113639    0.00196828    0.00004493

     Total force =     0.004163     Total SCF correction =     0.000097
     Energy error            =      4.4E-04 Ry
     Gradient error          =      2.4E-03 Ry/Bohr

     number of scf cycles    =   6
     number of bfgs steps    =   5

     energy             old  =    -594.5650151569 Ry
     energy             new  =    -594.5654576649 Ry

     CASE: energy            _new < energy            _old

     new trust radius        =       0.0236269999 bohr
     new conv_thr            =       0.0000000238 Ry


ATOMIC_POSITIONS (angstrom)
Zr               1.8007837747       -0.0063756309       -0.0057787565
Zr              -0.9059133457        1.5563366606       -0.0057787565
Zr               2.9591774177        5.1254458167       -0.0057751899
Zr               4.5149852915        0.0005830160        1.8619795134
[...]
    10.3331  10.3404  10.7348

          k = 0.3333 0.5774 0.5180 ( 10245 PWs)   bands (ev):

   -40.1164 -40.1154 -40.1114 -39.6185 -39.5756 -39.5700 -18.1742 -18.1721
   -18.1430 -18.1227 -18.1180 -18.1158 -18.0410 -18.0284 -18.0269 -17.8305
   -17.6411 -17.6391 -17.5393 -17.5197 -17.5157 -17.4730 -17.4401 -17.4374
     6.4249   6.6945   6.6962   7.9606   8.1593   8.1599   8.4716   8.7904
     8.7927   8.9113   8.9681   9.0637   9.0657   9.3910   9.3919  10.0567
    10.0581  10.2411  10.3011

          k = 0.3333 0.5774-1.0361 ( 10248 PWs)   bands (ev):

   -40.1127 -40.1119 -40.1078 -39.6157 -39.5731 -39.5675 -18.1864 -18.1847
   -18.1723 -18.1658 -18.1634 -18.1304 -18.0709 -17.9902 -17.9883 -17.8308
   -17.6676 -17.6660 -17.5677 -17.5619 -17.5525 -17.4768 -17.4316 -17.4294
     7.2046   7.5459   7.6475   7.6487   7.8166   7.8181   8.5608   8.7157
     8.8785   8.8858   8.8934   8.8957   9.2710   9.6730   9.6744   9.8756
     9.9887   9.9905  10.6978

          k =-0.3333 0.1925 0.0000 ( 10227 PWs)   bands (ev):

   -40.1214 -40.1178 -40.1149 -39.6203 -39.5789 -39.5725 -18.1945 -18.1599
   -18.1559 -18.0942 -18.0582 -18.0561 -18.0398 -18.0367 -18.0182 -17.8246
   -17.6528 -17.6112 -17.5195 -17.4852 -17.4728 -17.4666 -17.4461 -17.4238
     5.1079   6.3188   6.8057   7.4367   7.7577   7.8370   8.2346   8.3242
     8.7355   9.2139   9.4587   9.6103   9.6718   9.8934  10.0572  10.0597
    10.2642  10.3733  10.5249

          k = 0.0000 0.3849-0.5180 ( 10233 PWs)   bands (ev):

   -40.1170 -40.1151 -40.1111 -39.6181 -39.5757 -39.5703 -18.1839 -18.1587
   -18.1478 -18.1261 -18.1176 -18.1065 -18.0562 -18.0324 -18.0176 -17.8155
   -17.6524 -17.6364 -17.5571 -17.5177 -17.5113 -17.4717 -17.4375 -17.4315
     5.8841   6.9244   7.4344   7.8324   8.0692   8.2850   8.4189   8.4812
     8.7689   8.9046   9.0834   9.1384   9.2782   9.3176   9.3833   9.8638
    10.0810  10.1867  10.2536

          k =-0.3333 0.1925 0.5180 ( 10233 PWs)   bands (ev):

   -40.1174 -40.1145 -40.1114 -39.6180 -39.5760 -39.5700 -18.1849 -18.1567
   -18.1486 -18.1258 -18.1174 -18.1076 -18.0562 -18.0316 -18.0181 -17.8153
   -17.6511 -17.6381 -17.5570 -17.5156 -17.5135 -17.4716 -17.4357 -17.4333
     5.8841   6.9229   7.4359   7.8298   8.0681   8.2865   8.4212   8.4800
     8.7677   8.9038   9.0820   9.1429   9.2758   9.3198   9.3845   9.8605
    10.0821  10.1878  10.2606

          k =-0.3333 0.1925-1.0361 ( 10240 PWs)   bands (ev):

   -40.1133 -40.1112 -40.1079 -39.6158 -39.5731 -39.5675 -18.2003 -18.1882
   -18.1765 -18.1565 -18.1518 -18.1372 -18.0550 -18.0140 -17.9711 -17.8417
   -17.6646 -17.6390 -17.6060 -17.5473 -17.5321 -17.4771 -17.4481 -17.4301
     7.2324   7.4217   7.6178   7.6897   7.7973   8.1288   8.2731   8.4817
     8.7906   8.9507   8.9719   9.0636   9.4524   9.6158   9.7082   9.7251
     9.9385  10.3809  10.7108

          k = 0.3333-0.5774-0.5180 ( 10245 PWs)   bands (ev):

   -40.1164 -40.1154 -40.1114 -39.6185 -39.5756 -39.5700 -18.1742 -18.1721
   -18.1430 -18.1226 -18.1180 -18.1158 -18.0412 -18.0284 -18.0269 -17.8305
   -17.6411 -17.6391 -17.5393 -17.5197 -17.5157 -17.4730 -17.4401 -17.4374
     6.4250   6.6945   6.6962   7.9608   8.1594   8.1600   8.4719   8.7912
     8.7936   8.9106   8.9679   9.0625   9.0646   9.3907   9.3916  10.0565
    10.0579  10.2411  10.3007

     the Fermi energy is     9.2930 ev

!    total energy              =    -594.56554998 Ry
     estimated scf accuracy    <          2.8E-09 Ry
     smearing contrib. (-TS)   =      -0.00878462 Ry
     internal energy E=F+TS    =    -594.55676537 Ry

     The total energy is F=E-TS. E is the sum of the following terms:
     one-electron contribution =    -196.89100810 Ry
     hartree contribution      =     112.45986688 Ry
     xc contribution           =    -105.47954769 Ry
     ewald contribution        =    -404.64607645 Ry

     convergence has been achieved in   7 iterations

     negative rho (up, down):  3.742E-01 0.000E+00

     Forces acting on atoms (cartesian axes, Ry/au):

     atom    1 type  1   force =     0.00109241    0.00012163    0.00012034
     atom    2 type  1   force =    -0.00044087    0.00100687    0.00012034
     atom    3 type  1   force =    -0.00035313   -0.00061164    0.00011801
     atom    4 type  1   force =    -0.00066118   -0.00021430   -0.00011662
     atom    5 type  1   force =     0.00014500   -0.00067975   -0.00011662
     atom    6 type  1   force =     0.00021778    0.00037720   -0.00012546

     Total force =     0.002039     Total SCF correction =     0.000129
     Energy error            =      5.1E-06 Ry
     Gradient error          =      1.1E-03 Ry/Bohr

     number of scf cycles    =   8
     number of bfgs steps    =   7

     energy             old  =    -594.5655448978 Ry
     energy             new  =    -594.5655499832 Ry

     CASE: energy            _new < energy            _old


     WARNING: bfgs curvature condition failed, Theta= 0.932
     new trust radius        =       0.0016162278 bohr
     new conv_thr            =       0.0000000100 Ry


ATOMIC_POSITIONS (angstrom)
Zr               1.8023943606       -0.0061743023       -0.0056028021
Zr              -0.9065442830        1.5578321332       -0.0056028021
Zr               2.9586235406        5.1244864734       -0.0056024021
Zr               4.5141416177        0.0002808141        1.8618086669
Zr              -2.2568276167        3.9095019533        1.8618086669
Zr               1.6026163807        2.7758129283        1.8619226725



     Writing config-only to output data dir ./tmp/Zr6NiTe2.save/ :
     XML data file
     NEW-OLD atomic charge density approx. for the potential

     negative rho (up, down):  3.742E-01 0.000E+00

     total cpu time spent up to now is     2338.0 secs

     Self-consistent Calculation

     iteration #  1     ecut=    60.00 Ry     beta= 0.40
     Davidson diagonalization with overlap
     ethr =  1.00E-06,  avg # of iterations =  2.0

     Threshold (ethr) on eigenvalues was too large:
     Diagonalizing with lowered threshold

     Davidson diagonalization with overlap
     ethr =  9.38E-09,  avg # of iterations =  3.4

     negative rho (up, down):  3.742E-01 0.000E+00

     total cpu time spent up to now is     2397.2 secs

     total energy              =    -594.56555132 Ry
     estimated scf accuracy    <       0.00000976 Ry

     iteration #  2     ecut=    60.00 Ry     beta= 0.40
     Davidson diagonalization with overlap
     ethr =  1.36E-08,  avg # of iterations =  5.0

     negative rho (up, down):  3.742E-01 0.000E+00

     total cpu time spent up to now is     2427.6 secs

     total energy              =    -594.56554825 Ry
     estimated scf accuracy    <       0.00008941 Ry

     iteration #  3     ecut=    60.00 Ry     beta= 0.40
     Davidson diagonalization with overlap
     ethr =  1.36E-08,  avg # of iterations =  5.0

     negative rho (up, down):  3.742E-01 0.000E+00

     total cpu time spent up to now is     2457.5 secs

     total energy              =    -594.56555570 Ry
     estimated scf accuracy    <       0.00000032 Ry

     iteration #  4     ecut=    60.00 Ry     beta= 0.40
     Davidson diagonalization with overlap
     ethr =  4.45E-10,  avg # of iterations =  5.3

     negative rho (up, down):  3.742E-01 0.000E+00

     total cpu time spent up to now is     2487.9 secs

     total energy              =    -594.56555570 Ry
     estimated scf accuracy    <       0.00000196 Ry

     iteration #  5     ecut=    60.00 Ry     beta= 0.40
     Davidson diagonalization with overlap
     ethr =  4.45E-10,  avg # of iterations =  4.1

     negative rho (up, down):  3.742E-01 0.000E+00

     total cpu time spent up to now is     2513.3 secs

     total energy              =    -594.56555580 Ry
     estimated scf accuracy    <       0.00000007 Ry

     iteration #  6     ecut=    60.00 Ry     beta= 0.40
     Davidson diagonalization with overlap
     ethr =  9.92E-11,  avg # of iterations =  4.6

     negative rho (up, down):  3.742E-01 0.000E+00

     total cpu time spent up to now is     2541.2 secs

     total energy              =    -594.56555581 Ry
     estimated scf accuracy    <       0.00000006 Ry

     iteration #  7     ecut=    60.00 Ry     beta= 0.40
     Davidson diagonalization with overlap
     ethr =  8.24E-11,  avg # of iterations =  1.1

     negative rho (up, down):  3.742E-01 0.000E+00

     total cpu time spent up to now is     2561.9 secs

     total energy              =    -594.56555581 Ry
     estimated scf accuracy    <       0.00000003 Ry

     iteration #  8     ecut=    60.00 Ry     beta= 0.40
     Davidson diagonalization with overlap
     ethr =  4.35E-11,  avg # of iterations =  1.7

     negative rho (up, down):  3.742E-01 0.000E+00

     total cpu time spent up to now is     2584.4 secs

     End of self-consistent calculation

          k = 0.0000 0.0000 0.0000 ( 10193 PWs)   bands (ev):

   -40.1221 -40.1168 -40.1136 -39.6197 -39.5804 -39.5747 -18.2083 -18.1443
   -18.1423 -18.0830 -18.0640 -18.0520 -18.0507 -18.0350 -18.0323 -17.7687
   -17.6836 -17.6827 -17.5072 -17.4889 -17.4843 -17.4627 -17.4157 -17.4142
     4.6448   7.3821   7.3829   7.4069   7.5188   7.5213   8.2643   8.5382
     8.9172   8.9351   9.1050   9.5871   9.6673   9.6695   9.7911   9.8000
    10.0590  10.5183  10.5224

          k = 0.0000 0.0000 0.5180 ( 10223 PWs)   bands (ev):

   -40.1175 -40.1137 -40.1104 -39.6183 -39.5774 -39.5716 -18.1916 -18.1463
   -18.1447 -18.1252 -18.1216 -18.1195 -18.0361 -18.0347 -18.0256 -17.7981
   -17.6531 -17.6510 -17.5750 -17.5179 -17.5128 -17.4706 -17.4303 -17.4279
     5.4899   7.8224   7.8257   7.8996   8.0310   8.0344   8.2003   8.3502
     8.6458   9.0725   9.0804   9.1320   9.1326   9.5350   9.5640   9.5743
     9.9406  10.2698  10.2762

          k = 0.0000 0.0000-1.0361 ( 10170 PWs)   bands (ev):

   -40.1130 -40.1106 -40.1072 -39.6168 -39.5743 -39.5685 -18.1944 -18.1929
   -18.1744 -18.1675 -18.1510 -18.1497 -18.0262 -18.0250 -17.9697 -17.8424
   -17.6439 -17.6321 -17.6288 -17.5282 -17.5231 -17.4791 -17.4582 -17.4546
     7.3247   7.3986   7.7225   7.7255   8.0086   8.0153   8.0316   8.0729
     8.1410   9.3479   9.3528   9.6020   9.6062   9.6886  10.1022  10.1185
    10.1260  10.1646  10.1773

          k = 0.0000 0.3849 0.0000 ( 10227 PWs)   bands (ev):

   -40.1205 -40.1178 -40.1141 -39.6214 -39.5795 -39.5741 -18.1933 -18.1614
   -18.1540 -18.0944 -18.0581 -18.0554 -18.0403 -18.0352 -18.0172 -17.8248
   -17.6544 -17.6094 -17.5213 -17.4827 -17.4767 -17.4683 -17.4496 -17.4235
     5.1080   6.3197   6.8022   7.4372   7.7589   7.8393   8.2334   8.3245
     8.7355   9.2227   9.4566   9.6144   9.6678   9.8880  10.0556  10.0588
    10.2640  10.3715  10.5155

          k = 0.0000 0.3849 0.5180 ( 10233 PWs)   bands (ev):

   -40.1164 -40.1145 -40.1107 -39.6191 -39.5769 -39.5713 -18.1834 -18.1581
   -18.1473 -18.1257 -18.1172 -18.1061 -18.0560 -18.0321 -18.0172 -17.8152
   -17.6532 -17.6370 -17.5580 -17.5188 -17.5123 -17.4732 -17.4389 -17.4328
     5.8840   6.9243   7.4345   7.8326   8.0700   8.2849   8.4189   8.4810
     8.7688   8.9050   9.0832   9.1387   9.2783   9.3176   9.3822   9.8638
    10.0808  10.1869  10.2537

          k = 0.0000 0.3849-1.0361 ( 10240 PWs)   bands (ev):

   -40.1123 -40.1111 -40.1073 -39.6168 -39.5743 -39.5686 -18.2003 -18.1875
   -18.1747 -18.1560 -18.1535 -18.1358 -18.0539 -18.0156 -17.9697 -17.8415
   -17.6640 -17.6414 -17.6072 -17.5466 -17.5343 -17.4786 -17.4474 -17.4331
     7.2327   7.4230   7.6193   7.6919   7.7983   8.1306   8.2754   8.4796
     8.7878   8.9517   8.9695   9.0631   9.4488   9.6090   9.6949   9.7236
     9.9495  10.3823  10.7159

          k = 0.3333 0.5774 0.0000 ( 10290 PWs)   bands (ev):

   -40.1194 -40.1184 -40.1146 -39.6222 -39.5793 -39.5736 -18.1803 -18.1781
   -18.1548 -18.0629 -18.0625 -18.0554 -18.0462 -18.0445 -18.0401 -17.8138
   -17.6214 -17.6186 -17.5263 -17.4797 -17.4747 -17.4709 -17.4466 -17.4435
     5.7648   6.0233   6.0260   7.4103   7.8132   7.8146   8.3418   8.3436
     8.8189   9.2442   9.5160   9.5231   9.7426   9.9196   9.9838   9.9882
    10.3321  10.3392  10.7352

          k = 0.3333 0.5774 0.5180 ( 10245 PWs)   bands (ev):

   -40.1157 -40.1148 -40.1110 -39.6195 -39.5768 -39.5711 -18.1736 -18.1716
   -18.1425 -18.1223 -18.1175 -18.1154 -18.0407 -18.0280 -18.0266 -17.8303
   -17.6418 -17.6397 -17.5401 -17.5207 -17.5166 -17.4744 -17.4416 -17.4388
     6.4250   6.6943   6.6960   7.9614   8.1593   8.1597   8.4731   8.7905
     8.7926   8.9113   8.9671   9.0637   9.0656   9.3903   9.3912  10.0567
    10.0578  10.2417  10.3016

          k = 0.3333 0.5774-1.0361 ( 10248 PWs)   bands (ev):

   -40.1121 -40.1112 -40.1074 -39.6167 -39.5743 -39.5686 -18.1859 -18.1843
   -18.1720 -18.1652 -18.1630 -18.1298 -18.0707 -17.9898 -17.9880 -17.8305
   -17.6684 -17.6666 -17.5688 -17.5628 -17.5531 -17.4783 -17.4331 -17.4307
     7.2047   7.5467   7.6474   7.6486   7.8166   7.8181   8.5621   8.7145
     8.8788   8.8859   8.8933   8.8954   9.2715   9.6723   9.6737   9.8760
     9.9892   9.9909  10.6987

          k =-0.3333 0.1925 0.0000 ( 10227 PWs)   bands (ev):

   -40.1208 -40.1172 -40.1144 -39.6213 -39.5801 -39.5735 -18.1940 -18.1595
   -18.1553 -18.0940 -18.0579 -18.0555 -18.0393 -18.0361 -18.0179 -17.8243
   -17.6534 -17.6117 -17.5204 -17.4864 -17.4738 -17.4680 -17.4473 -17.4251
     5.1079   6.3187   6.8056   7.4369   7.7577   7.8367   8.2343   8.3241
     8.7352   9.2134   9.4586   9.6106   9.6737   9.8927  10.0571  10.0593
    10.2642  10.3727  10.5238

          k = 0.0000 0.3849-0.5180 ( 10233 PWs)   bands (ev):

   -40.1164 -40.1145 -40.1107 -39.6191 -39.5769 -39.5713 -18.1834 -18.1581
   -18.1473 -18.1257 -18.1172 -18.1061 -18.0560 -18.0321 -18.0172 -17.8152
   -17.6532 -17.6370 -17.5580 -17.5188 -17.5123 -17.4732 -17.4389 -17.4328
     5.8840   6.9243   7.4345   7.8325   8.0700   8.2849   8.4189   8.4810
     8.7688   8.9050   9.0833   9.1387   9.2783   9.3176   9.3822   9.8638
    10.0808  10.1869  10.2537

          k =-0.3333 0.1925 0.5180 ( 10233 PWs)   bands (ev):

   -40.1167 -40.1139 -40.1110 -39.6190 -39.5772 -39.5711 -18.1844 -18.1562
   -18.1480 -18.1253 -18.1170 -18.1071 -18.0560 -18.0313 -18.0177 -17.8150
   -17.6518 -17.6388 -17.5579 -17.5166 -17.5144 -17.4731 -17.4370 -17.4346
     5.8840   6.9228   7.4359   7.8299   8.0689   8.2865   8.4213   8.4799
     8.7676   8.9043   9.0819   9.1431   9.2759   9.3198   9.3836   9.8604
    10.0818  10.1880  10.2605

          k =-0.3333 0.1925-1.0361 ( 10240 PWs)   bands (ev):

   -40.1127 -40.1106 -40.1074 -39.6168 -39.5743 -39.5686 -18.2000 -18.1878
   -18.1759 -18.1561 -18.1514 -18.1366 -18.0547 -18.0138 -17.9706 -17.8416
   -17.6653 -17.6395 -17.6069 -17.5482 -17.5329 -17.4786 -17.4496 -17.4314
     7.2325   7.4218   7.6183   7.6898   7.7973   8.1290   8.2740   8.4819
     8.7902   8.9496   8.9722   9.0635   9.4528   9.6149   9.7077   9.7253
     9.9380  10.3815  10.7121

          k = 0.3333-0.5774-0.5180 ( 10245 PWs)   bands (ev):

   -40.1157 -40.1148 -40.1110 -39.6195 -39.5768 -39.5711 -18.1737 -18.1716
   -18.1425 -18.1222 -18.1175 -18.1154 -18.0409 -18.0280 -18.0266 -17.8302
   -17.6418 -17.6398 -17.5401 -17.5207 -17.5166 -17.4744 -17.4416 -17.4388
     6.4251   6.6944   6.6960   7.9616   8.1594   8.1599   8.4733   8.7912
     8.7934   8.9107   8.9670   9.0627   9.0646   9.3900   9.3910  10.0565
    10.0577  10.2416  10.3012

     the Fermi energy is     9.2928 ev

!    total energy              =    -594.56555581 Ry
     estimated scf accuracy    <          6.9E-09 Ry
     smearing contrib. (-TS)   =      -0.00879712 Ry
     internal energy E=F+TS    =    -594.55675869 Ry

     The total energy is F=E-TS. E is the sum of the following terms:
     one-electron contribution =    -196.83778786 Ry
     hartree contribution      =     112.43270445 Ry
     xc contribution           =    -105.47915089 Ry
     ewald contribution        =    -404.67252439 Ry

     convergence has been achieved in   8 iterations

     negative rho (up, down):  3.742E-01 0.000E+00

     Forces acting on atoms (cartesian axes, Ry/au):

     atom    1 type  1   force =     0.00083263    0.00011345    0.00010538
     atom    2 type  1   force =    -0.00031806    0.00077780    0.00010538
     atom    3 type  1   force =    -0.00026642   -0.00046146    0.00010319
     atom    4 type  1   force =    -0.00052063   -0.00020432   -0.00010182
     atom    5 type  1   force =     0.00008337   -0.00055304   -0.00010182
     atom    6 type  1   force =     0.00018913    0.00032758   -0.00011031

     Total force =     0.001591     Total SCF correction =     0.000207
     SCF correction compared to forces is large: reduce conv_thr to get better values
     Energy error            =      5.8E-06 Ry
     Gradient error          =      8.3E-04 Ry/Bohr

     bfgs converged in   9 scf cycles and   8 bfgs steps
     (criteria: energy <  1.0E-04 Ry, force <  1.0E-03 Ry/Bohr)

     End of BFGS Geometry Optimization

     Final energy             =    -594.5655558068 Ry

     File ./tmp/Zr6NiTe2.bfgs deleted, as requested
Begin final coordinates

ATOMIC_POSITIONS (angstrom)
Zr               1.8023943606       -0.0061743023       -0.0056028021
Zr              -0.9065442830        1.5578321332       -0.0056028021
Zr               2.9586235406        5.1244864734       -0.0056024021
Zr               4.5141416177        0.0002808141        1.8618086669
Zr              -2.2568276167        3.9095019533        1.8618086669
Zr               1.6026163807        2.7758129283        1.8619226725
End final coordinates



     Writing all to output data dir ./tmp/Zr6NiTe2.save/ :
     XML data file, charge density, pseudopotentials, collected wavefunctions

     init_run     :     15.61s CPU     16.95s WALL (       1 calls)
     electrons    :   2464.95s CPU   2513.61s WALL (       9 calls)
     update_pot   :      1.78s CPU      1.82s WALL (       8 calls)
     forces       :     51.71s CPU     52.71s WALL (       9 calls)

     Called by init_run:
     wfcinit      :     14.56s CPU     15.65s WALL (       1 calls)
     potinit      :      0.23s CPU      0.28s WALL (       1 calls)
     hinit0       :      0.18s CPU      0.19s WALL (       1 calls)

     Called by electrons:
     c_bands      :   2121.71s CPU   2150.37s WALL (      85 calls)
     sum_band     :    285.98s CPU    298.15s WALL (      85 calls)
     v_of_rho     :     15.65s CPU     16.04s WALL (      88 calls)
     newd         :     43.27s CPU     51.42s WALL (      88 calls)
     mix_rho      :      2.67s CPU      2.72s WALL (      85 calls)

     Called by c_bands:
     init_us_2    :     19.54s CPU     19.73s WALL (    2520 calls)
     cegterg      :   2087.83s CPU   2115.92s WALL (    1190 calls)

     Called by *egterg:
     cdiaghg      :     21.44s CPU     21.58s WALL (    5992 calls)
     h_psi        :   1173.44s CPU   1194.48s WALL (    6202 calls)
     s_psi        :    217.50s CPU    219.13s WALL (    6202 calls)
     g_psi        :      2.89s CPU      2.92s WALL (    4998 calls)

     Called by h_psi:
     h_psi:calbec :    251.23s CPU    253.20s WALL (    6202 calls)
     vloc_psi     :    699.22s CPU    715.93s WALL (    6202 calls)
     add_vuspsi   :    217.78s CPU    220.08s WALL (    6202 calls)

     General routines
     calbec       :    379.99s CPU    383.07s WALL (    7896 calls)
     fft          :     11.14s CPU     11.63s WALL (    1239 calls)
     ffts         :      0.67s CPU      0.69s WALL (     173 calls)
     fftw         :    626.15s CPU    640.34s WALL (  329894 calls)
     interpolate  :      1.37s CPU      1.43s WALL (      88 calls)

     Parallel routines

     PWSCF        :  42m18.47s CPU  43m10.34s WALL


   This run was terminated on:  10:38:46   2Aug2025            

=------------------------------------------------------------------------------=
   JOB DONE.
=------------------------------------------------------------------------------=
