
     Program PWSCF v.7.4.1 starts on  2Aug2025 at 11:34:16 

     This program is part of the open-source Quantum ESPRESSO suite
     for quantum simulation of materials; please cite
         "P. Giannozzi et al., J. Phys.:Condens. Matter 21 395502 (2009);
         "P. Giannozzi et al., J. Phys.:Condens. Matter 29 465901 (2017);
         "P. Giannozzi et al., J. Chem. Phys. 152 154105 (2020);
          URL http://www.quantum-espresso.org", 
     in publications or presentations arising from this work. More details at
     http://www.quantum-espresso.org/quote

     Parallel version (MPI), running on     2 processors

     MPI processes distributed on     1 nodes
     1271 MiB available memory on the printing compute node when the environment starts

     Waiting for input...
     Reading input from standard input
Warning: card &CELL ignored
Warning: card / ignored

     Current dimensions of program PWSCF are:
     Max number of different atomic species (ntypx) = 10
     Max number of k-points (npk) =  40000
     Max angular momentum in pseudopotentials (lmaxx) =  4
     Message from routine setup:
     no reason to have ecutrho>4*ecutwfc

     R & G space division:  proc/nbgrp/npool/nimage =       2
     Subspace diagonalization in iterative solution of the eigenvalue problem:
     a serial algorithm will be used


     Parallelization info
     --------------------
     sticks:   dense  smooth     PW     G-vecs:    dense   smooth      PW
     Min        2658    1767    507                75267    40916    6252
     Max        2659    1768    508                75268    40917    6253
     Sum        5317    3535   1015               150535    81833   12505

     Using Slab Decomposition



     bravais-lattice index     =            4
     lattice parameter (alat)  =      14.6159  a.u.
     unit-cell volume          =    1304.9057 (a.u.)^3
     number of atoms/cell      =            2
     number of atomic types    =            1
     number of electrons       =        12.00
     number of Kohn-Sham states=           10
     kinetic-energy cutoff     =      60.0000  Ry
     charge density cutoff     =     360.0000  Ry
     scf convergence threshold =      1.0E-06
     mixing beta               =       0.4000
     number of iterations used =            8  plain     mixing
     energy convergence thresh.=      1.0E-04
     force convergence thresh. =      1.0E-03
     Exchange-correlation= SLA  PW   PBE  PBE
                           (   1   4   3   4   0   0   0)
     nstep                     =          100


     celldm(1)=  14.615898  celldm(2)=   1.000000  celldm(3)=   0.482583
     celldm(4)=   0.000000  celldm(5)=   0.000000  celldm(6)=   0.000000

     crystal axes: (cart. coord. in units of alat)
               a(1) = (   1.000000   0.000000   0.000000 )  
               a(2) = (  -0.500000   0.866025   0.000000 )  
               a(3) = (   0.000000   0.000000   0.482583 )  

     reciprocal axes: (cart. coord. in units 2 pi/alat)
               b(1) = (  1.000000  0.577350 -0.000000 )  
               b(2) = (  0.000000  1.154701  0.000000 )  
               b(3) = (  0.000000 -0.000000  2.072182 )  


     PseudoPot. # 1 for Te read from file:
     /home/tauqeer/Zr6MTe2/sudopoten/Te.pbe-rrkj.upf
     MD5 check sum: 22c11190d1be98e87836461ecdaaa002
     Pseudo is Norm-conserving, Zval =  6.0
     Generated by new atomic code, or converted to UPF format
     Using radial grid of 1191 points,  3 beta functions with: 
                l(1) =   0
                l(2) =   0
                l(3) =   2

     atomic species   valence    mass     pseudopotential
     Te                6.00   127.60000     Te( 1.00)

      4 Sym. Ops. (no inversion) found



   Cartesian axes

     site n.     atom                  positions (alat units)
         1        Te     tau(   1) = (  -0.0000000   0.5758576   0.0000000  )
         2        Te     tau(   2) = (   0.4987073   0.2879289   0.0000000  )

     number of k points=    12  Gaussian smearing, width (Ry)=  0.0100
                       cart. coord. in units 2pi/alat
        k(    1) = (   0.0000000   0.0000000   0.0000000), wk =   0.0555556
        k(    2) = (   0.0000000   0.0000000   0.5180456), wk =   0.1111111
        k(    3) = (   0.0000000   0.0000000  -1.0360912), wk =   0.0555556
        k(    4) = (   0.0000000   0.3849002   0.0000000), wk =   0.2222222
        k(    5) = (   0.0000000   0.3849002   0.5180456), wk =   0.4444444
        k(    6) = (   0.0000000   0.3849002  -1.0360912), wk =   0.2222222
        k(    7) = (   0.3333333   0.5773503   0.0000000), wk =   0.1111111
        k(    8) = (   0.3333333   0.5773503   0.5180456), wk =   0.2222222
        k(    9) = (   0.3333333   0.5773503  -1.0360912), wk =   0.1111111
        k(   10) = (  -0.3333333   0.1924501   0.0000000), wk =   0.1111111
        k(   11) = (  -0.3333333   0.1924501   0.5180456), wk =   0.2222222
        k(   12) = (  -0.3333333   0.1924501  -1.0360912), wk =   0.1111111

     Dense  grid:   150535 G-vectors     FFT dimensions: (  90,  90,  45)

     Smooth grid:    81833 G-vectors     FFT dimensions: (  75,  75,  36)

     Estimated max dynamical RAM per process >      58.66 MB

     Estimated total dynamical RAM >     117.31 MB

     Initial potential from superposition of free atoms

     starting charge      11.5398, renormalised to      12.0000
     Starting wfcs are   18 randomized atomic wfcs

     total cpu time spent up to now is        1.9 secs

     Self-consistent Calculation

     iteration #  1     ecut=    60.00 Ry     beta= 0.40
     Davidson diagonalization with overlap
     ethr =  1.00E-02,  avg # of iterations =  2.3

     Threshold (ethr) on eigenvalues was too large:
     Diagonalizing with lowered threshold

     Davidson diagonalization with overlap
     ethr =  4.72E-04,  avg # of iterations =  1.4

     total cpu time spent up to now is        6.1 secs

     total energy              =     -32.44095653 Ry
     estimated scf accuracy    <       0.05536162 Ry

     iteration #  2     ecut=    60.00 Ry     beta= 0.40
     Davidson diagonalization with overlap
     ethr =  4.61E-04,  avg # of iterations =  3.0

     total cpu time spent up to now is        8.4 secs

     total energy              =     -32.44130946 Ry
     estimated scf accuracy    <       0.01408659 Ry

     iteration #  3     ecut=    60.00 Ry     beta= 0.40
     Davidson diagonalization with overlap
     ethr =  1.17E-04,  avg # of iterations =  1.8

     total cpu time spent up to now is       10.5 secs

     total energy              =     -32.44290805 Ry
     estimated scf accuracy    <       0.00262345 Ry

     iteration #  4     ecut=    60.00 Ry     beta= 0.40
     Davidson diagonalization with overlap
     ethr =  2.19E-05,  avg # of iterations =  1.4

     total cpu time spent up to now is       12.6 secs

     total energy              =     -32.44334643 Ry
     estimated scf accuracy    <       0.00059391 Ry

     iteration #  5     ecut=    60.00 Ry     beta= 0.40
     Davidson diagonalization with overlap
     ethr =  4.95E-06,  avg # of iterations =  4.4

     total cpu time spent up to now is       15.5 secs

     total energy              =     -32.44338003 Ry
     estimated scf accuracy    <       0.00014257 Ry

     iteration #  6     ecut=    60.00 Ry     beta= 0.40
     Davidson diagonalization with overlap
     ethr =  1.19E-06,  avg # of iterations =  1.2

     total cpu time spent up to now is       17.6 secs

     total energy              =     -32.44338350 Ry
     estimated scf accuracy    <       0.00001853 Ry

     iteration #  7     ecut=    60.00 Ry     beta= 0.40
     Davidson diagonalization with overlap
     ethr =  1.54E-07,  avg # of iterations =  1.0

     total cpu time spent up to now is       19.6 secs

     End of self-consistent calculation

          k = 0.0000 0.0000 0.0000 ( 10193 PWs)   bands (ev):

   -12.0160 -11.7824  -3.2124  -3.1986  -2.2978  -2.2863  -0.3536  -0.1496
     2.3664   4.7119

          k = 0.0000 0.0000 0.5180 ( 10223 PWs)   bands (ev):

   -11.7251 -11.4996  -2.8711  -2.8574  -2.5126  -2.1787  -1.9951  -1.9842
     3.1261   5.1384

          k = 0.0000 0.0000-1.0361 ( 10170 PWs)   bands (ev):

   -11.3789 -11.1654  -3.9812  -3.6104  -2.4499  -2.4363  -1.6354  -1.6255
     4.0451   4.0575

          k = 0.0000 0.3849 0.0000 ( 10227 PWs)   bands (ev):

   -11.9690 -11.8335  -3.2891  -3.0931  -2.4335  -2.1611  -0.3121  -0.1937
     3.1005   3.7749

          k = 0.0000 0.3849 0.5180 ( 10233 PWs)   bands (ev):

   -11.6797 -11.5488  -2.9418  -2.7550  -2.4529  -2.2478  -2.1163  -1.8722
     3.7240   4.4025

          k = 0.0000 0.3849-1.0361 ( 10240 PWs)   bands (ev):

   -11.3358 -11.2119  -3.9077  -3.6932  -2.5104  -2.3284  -1.7580  -1.5332
     3.8243   3.9333

          k = 0.3333 0.5774 0.0000 ( 10290 PWs)   bands (ev):

   -11.9036 -11.9009  -3.3737  -2.7736  -2.7675  -2.0465  -0.2547  -0.2525
     3.1943   4.3342

          k = 0.3333 0.5774 0.5180 ( 10245 PWs)   bands (ev):

   -11.6165 -11.6139  -3.0186  -2.4760  -2.4706  -2.3223  -2.3185  -1.7691
     3.7272   4.8860

          k = 0.3333 0.5774-1.0361 ( 10248 PWs)   bands (ev):

   -11.2760 -11.2734  -3.8044  -3.8011  -2.5741  -2.0523  -2.0461  -1.4468
     3.4939   4.5634

          k =-0.3333 0.1925 0.0000 ( 10227 PWs)   bands (ev):

   -11.9679 -11.8347  -3.2811  -3.1012  -2.4278  -2.1668  -0.3112  -0.1947
     3.0981   3.7686

          k =-0.3333 0.1925 0.5180 ( 10233 PWs)   bands (ev):

   -11.6786 -11.5500  -2.9337  -2.7633  -2.4516  -2.2493  -2.1106  -1.8776
     3.7215   4.3966

          k =-0.3333 0.1925-1.0361 ( 10240 PWs)   bands (ev):

   -11.3348 -11.2130  -3.9063  -3.6948  -2.5022  -2.3370  -1.7527  -1.5382
     3.8297   3.9332

     the Fermi energy is    -2.1459 ev

!    total energy              =     -32.44338714 Ry
     estimated scf accuracy    <       0.00000024 Ry
     smearing contrib. (-TS)   =      -0.00535527 Ry
     internal energy E=F+TS    =     -32.43803187 Ry

     The total energy is F=E-TS. E is the sum of the following terms:
     one-electron contribution =     -12.08256373 Ry
     hartree contribution      =       7.87165064 Ry
     xc contribution           =      -6.71837828 Ry
     ewald contribution        =     -21.50874051 Ry

     convergence has been achieved in   7 iterations

     Forces acting on atoms (cartesian axes, Ry/au):

     atom    1 type  1   force =     0.00050007   -0.00028871    0.00000000
     atom    2 type  1   force =    -0.00050007    0.00028871    0.00000000

     Total force =     0.000817     Total SCF correction =     0.000018

     BFGS Geometry Optimization
     Energy error            =      6.7E-07 Ry
     Gradient error          =      5.0E-04 Ry/Bohr

     bfgs converged in   1 scf cycles and   0 bfgs steps
     (criteria: energy <  1.0E-04 Ry, force <  1.0E-03 Ry/Bohr)

     End of BFGS Geometry Optimization

     Final energy             =     -32.4433871398 Ry
Begin final coordinates

ATOMIC_POSITIONS (angstrom)
Te               0.0000000000        4.4539130000        0.0000000000
Te               3.8572020000        2.2269570000        0.0000000000
End final coordinates



     Writing all to output data dir ./tmp/Zr6NiTe2.save/ :
     XML data file, charge density, pseudopotentials, collected wavefunctions

     init_run     :      1.74s CPU      1.87s WALL (       1 calls)
     electrons    :     17.26s CPU     17.69s WALL (       1 calls)
     forces       :      0.16s CPU      0.16s WALL (       1 calls)

     Called by init_run:
     wfcinit      :      1.39s CPU      1.42s WALL (       1 calls)
     potinit      :      0.23s CPU      0.30s WALL (       1 calls)
     hinit0       :      0.07s CPU      0.08s WALL (       1 calls)

     Called by electrons:
     c_bands      :     13.02s CPU     13.28s WALL (       8 calls)
     sum_band     :      2.73s CPU      2.80s WALL (       8 calls)
     v_of_rho     :      1.33s CPU      1.47s WALL (       8 calls)
     mix_rho      :      0.20s CPU      0.21s WALL (       8 calls)

     Called by c_bands:
     init_us_2    :      0.36s CPU      0.37s WALL (     216 calls)
     cegterg      :     12.70s CPU     12.95s WALL (      96 calls)

     Called by *egterg:
     cdiaghg      :      0.04s CPU      0.04s WALL (     284 calls)
     h_psi        :     12.07s CPU     12.34s WALL (     308 calls)
     g_psi        :      0.03s CPU      0.03s WALL (     200 calls)

     Called by h_psi:
     h_psi:calbec :      0.50s CPU      0.51s WALL (     308 calls)
     vloc_psi     :     11.15s CPU     11.40s WALL (     308 calls)
     add_vuspsi   :      0.36s CPU      0.36s WALL (     308 calls)

     General routines
     calbec       :      0.58s CPU      0.59s WALL (     356 calls)
     fft          :      0.81s CPU      0.88s WALL (      96 calls)
     ffts         :      0.06s CPU      0.06s WALL (      16 calls)
     fftw         :     10.13s CPU     10.35s WALL (    5536 calls)
     interpolate  :      0.12s CPU      0.12s WALL (       8 calls)

     Parallel routines

     PWSCF        :     19.23s CPU     19.83s WALL


   This run was terminated on:  11:34:36   2Aug2025            

=------------------------------------------------------------------------------=
   JOB DONE.
=------------------------------------------------------------------------------=
