
     Program PWSCF v.7.4.1 starts on  2Aug2025 at  9: 1: 3 

     This program is part of the open-source Quantum ESPRESSO suite
     for quantum simulation of materials; please cite
         "P. Giannozzi et al., J. Phys.:Condens. Matter 21 395502 (2009);
         "P. Giannozzi et al., J. Phys.:Condens. Matter 29 465901 (2017);
         "P. Giannozzi et al., J. Chem. Phys. 152 154105 (2020);
          URL http://www.quantum-espresso.org", 
     in publications or presentations arising from this work. More details at
     http://www.quantum-espresso.org/quote

     Parallel version (MPI), running on     2 processors

     MPI processes distributed on     1 nodes
     1367 MiB available memory on the printing compute node when the environment starts

     Waiting for input...
     Reading input from standard input
Warning: card &CELL ignored
Warning: card / ignored

     Current dimensions of program PWSCF are:
     Max number of different atomic species (ntypx) = 10
     Max number of k-points (npk) =  40000
     Max angular momentum in pseudopotentials (lmaxx) =  4
     file Ni.pbe-nd-rrkjus.upf: wavefunction(s)  4S renormalized

     R & G space division:  proc/nbgrp/npool/nimage =       2
     Subspace diagonalization in iterative solution of the eigenvalue problem:
     a serial algorithm will be used


     Parallelization info
     --------------------
     sticks:   dense  smooth     PW     G-vecs:    dense   smooth      PW
     Min        2658    1767    507                75267    40916    6252
     Max        2659    1768    508                75268    40917    6253
     Sum        5317    3535   1015               150535    81833   12505

     Using Slab Decomposition



     bravais-lattice index     =            4
     lattice parameter (alat)  =      14.6159  a.u.
     unit-cell volume          =    1304.9057 (a.u.)^3
     number of atoms/cell      =            9
     number of atomic types    =            3
     number of electrons       =        94.00
     number of Kohn-Sham states=           56
     kinetic-energy cutoff     =      60.0000  Ry
     charge density cutoff     =     360.0000  Ry
     scf convergence threshold =      1.0E-06
     mixing beta               =       0.4000
     number of iterations used =            8  plain     mixing
     energy convergence thresh.=      1.0E-04
     force convergence thresh. =      1.0E-03
     Exchange-correlation= SLA  PW   PBE  PBE
                           (   1   4   3   4   0   0   0)
     nstep                     =          100


     celldm(1)=  14.615898  celldm(2)=   1.000000  celldm(3)=   0.482583
     celldm(4)=   0.000000  celldm(5)=   0.000000  celldm(6)=   0.000000

     crystal axes: (cart. coord. in units of alat)
               a(1) = (   1.000000   0.000000   0.000000 )  
               a(2) = (  -0.500000   0.866025   0.000000 )  
               a(3) = (   0.000000   0.000000   0.482583 )  

     reciprocal axes: (cart. coord. in units 2 pi/alat)
               b(1) = (  1.000000  0.577350 -0.000000 )  
               b(2) = (  0.000000  1.154701  0.000000 )  
               b(3) = (  0.000000 -0.000000  2.072182 )  


     PseudoPot. # 1 for Zr read from file:
     /home/tauqeer/Zr6MTe2/sudopoten/Zr.pbe-nsp-van.upf
     MD5 check sum: f06f7249673c13908de31cca45056a07
     Pseudo is Ultrasoft + core correction, Zval = 12.0
     Generated by new atomic code, or converted to UPF format
     Using radial grid of  887 points,  6 beta functions with: 
                l(1) =   0
                l(2) =   0
                l(3) =   1
                l(4) =   1
                l(5) =   2
                l(6) =   2
     Q(r) pseudized with  6 coefficients,  rinner =    1.200   1.200   1.200
                                                       1.200   1.200

     PseudoPot. # 2 for Ni read from file:
     /home/tauqeer/Zr6MTe2/sudopoten/Ni.pbe-nd-rrkjus.upf
     MD5 check sum: d71bc9c4c8adef96ad6fe9664ede368e
     Pseudo is Ultrasoft + core correction, Zval = 10.0
     Generated by new atomic code, or converted to UPF format
     Using radial grid of 1203 points,  6 beta functions with: 
                l(1) =   0
                l(2) =   0
                l(3) =   1
                l(4) =   1
                l(5) =   2
                l(6) =   2
     Q(r) pseudized with 0 coefficients 


     PseudoPot. # 3 for Te read from file:
     /home/tauqeer/Zr6MTe2/sudopoten/Te.pbe-rrkj.upf
     MD5 check sum: 22c11190d1be98e87836461ecdaaa002
     Pseudo is Norm-conserving, Zval =  6.0
     Generated by new atomic code, or converted to UPF format
     Using radial grid of 1191 points,  3 beta functions with: 
                l(1) =   0
                l(2) =   0
                l(3) =   2

     atomic species   valence    mass     pseudopotential
     Zr               12.00    91.22400     Zr( 1.00)
     Ni               10.00    58.69340     Ni( 1.00)
     Te                6.00   127.60000     Te( 1.00)

      2 Sym. Ops. (no inversion) found



   Cartesian axes

     site n.     atom                  positions (alat units)
         1        Zr     tau(   1) = (   0.2373720   0.0000000   0.0000000  )
         2        Zr     tau(   2) = (  -0.1186860   0.2055702   0.0000000  )
         3        Zr     tau(   3) = (   0.3800213   0.6582163   0.0000000  )
         4        Zr     tau(   4) = (   0.5908246   0.0000000   0.2399984  )
         5        Zr     tau(   5) = (  -0.2954123   0.5116692   0.2399984  )
         6        Zr     tau(   6) = (   0.2032950   0.3521173   0.2399984  )
         7        Ni     tau(   7) = (   0.0000000   0.0000000   0.2399984  )
         8        Te     tau(   8) = (  -0.0000000   0.5758576   0.0000000  )
         9        Te     tau(   9) = (   0.4987073   0.2879289   0.0000000  )

     number of k points=    14  Gaussian smearing, width (Ry)=  0.0100
                       cart. coord. in units 2pi/alat
        k(    1) = (   0.0000000   0.0000000   0.0000000), wk =   0.0555556
        k(    2) = (   0.0000000   0.0000000   0.5180456), wk =   0.1111111
        k(    3) = (   0.0000000   0.0000000  -1.0360912), wk =   0.0555556
        k(    4) = (   0.0000000   0.3849002   0.0000000), wk =   0.2222222
        k(    5) = (   0.0000000   0.3849002   0.5180456), wk =   0.2222222
        k(    6) = (   0.0000000   0.3849002  -1.0360912), wk =   0.2222222
        k(    7) = (   0.3333333   0.5773503   0.0000000), wk =   0.1111111
        k(    8) = (   0.3333333   0.5773503   0.5180456), wk =   0.1111111
        k(    9) = (   0.3333333   0.5773503  -1.0360912), wk =   0.1111111
        k(   10) = (  -0.3333333   0.1924501   0.0000000), wk =   0.1111111
        k(   11) = (   0.0000000   0.3849002  -0.5180456), wk =   0.2222222
        k(   12) = (  -0.3333333   0.1924501   0.5180456), wk =   0.2222222
        k(   13) = (  -0.3333333   0.1924501  -1.0360912), wk =   0.1111111
        k(   14) = (   0.3333333  -0.5773503  -0.5180456), wk =   0.1111111

     Dense  grid:   150535 G-vectors     FFT dimensions: (  90,  90,  45)

     Smooth grid:    81833 G-vectors     FFT dimensions: (  75,  75,  36)

     Estimated max dynamical RAM per process >     362.15 MB

     Estimated total dynamical RAM >     724.29 MB

     Check: negative core charge=   -0.000002

     Initial potential from superposition of free atoms

     starting charge      93.5264, renormalised to      94.0000

     negative rho (up, down):  3.649E-01 0.000E+00
     Starting wfcs are  102 randomized atomic wfcs

     total cpu time spent up to now is       27.3 secs

     Self-consistent Calculation

     iteration #  1     ecut=    60.00 Ry     beta= 0.40
     Davidson diagonalization with overlap
     ethr =  1.00E-02,  avg # of iterations =  2.0

     negative rho (up, down):  3.621E-01 0.000E+00

     total cpu time spent up to now is       66.0 secs

     total energy              =    -697.65269315 Ry
     estimated scf accuracy    <      27.86732844 Ry

     iteration #  2     ecut=    60.00 Ry     beta= 0.40
     Davidson diagonalization with overlap
     ethr =  1.00E-02,  avg # of iterations =  6.0

     negative rho (up, down):  3.629E-01 0.000E+00

     total cpu time spent up to now is      125.3 secs

     total energy              =    -706.21183626 Ry
     estimated scf accuracy    <     114.31315293 Ry

     iteration #  3     ecut=    60.00 Ry     beta= 0.40
     Davidson diagonalization with overlap
     ethr =  1.00E-02,  avg # of iterations =  3.8

     negative rho (up, down):  3.646E-01 0.000E+00

     total cpu time spent up to now is      169.3 secs

     total energy              =    -714.76460748 Ry
     estimated scf accuracy    <       7.98749360 Ry

     iteration #  4     ecut=    60.00 Ry     beta= 0.40
     Davidson diagonalization with overlap
     ethr =  8.50E-03,  avg # of iterations =  1.1

     negative rho (up, down):  3.675E-01 0.000E+00

     total cpu time spent up to now is      201.1 secs

     total energy              =    -713.93414994 Ry
     estimated scf accuracy    <       5.02083477 Ry

     iteration #  5     ecut=    60.00 Ry     beta= 0.40
     Davidson diagonalization with overlap
     ethr =  5.34E-03,  avg # of iterations =  1.9

     negative rho (up, down):  3.704E-01 0.000E+00

     total cpu time spent up to now is      236.0 secs

     total energy              =    -713.67990668 Ry
     estimated scf accuracy    <       1.71888609 Ry

     iteration #  6     ecut=    60.00 Ry     beta= 0.40
     Davidson diagonalization with overlap
     ethr =  1.83E-03,  avg # of iterations =  2.4

     negative rho (up, down):  3.711E-01 0.000E+00

     total cpu time spent up to now is      273.5 secs

     total energy              =    -713.87980024 Ry
     estimated scf accuracy    <       0.07964437 Ry

     iteration #  7     ecut=    60.00 Ry     beta= 0.40
     Davidson diagonalization with overlap
     c_bands:  1 eigenvalues not converged
     ethr =  8.47E-05,  avg # of iterations = 12.1

     negative rho (up, down):  3.709E-01 0.000E+00

     total cpu time spent up to now is      329.9 secs

     total energy              =    -713.84978887 Ry
     estimated scf accuracy    <       0.21006164 Ry

     iteration #  8     ecut=    60.00 Ry     beta= 0.40
     Davidson diagonalization with overlap
     ethr =  8.47E-05,  avg # of iterations =  3.6

     negative rho (up, down):  3.707E-01 0.000E+00

     total cpu time spent up to now is      368.3 secs

     total energy              =    -713.90201322 Ry
     estimated scf accuracy    <       0.09441248 Ry

     iteration #  9     ecut=    60.00 Ry     beta= 0.40
     Davidson diagonalization with overlap
     ethr =  8.47E-05,  avg # of iterations =  2.0

     negative rho (up, down):  3.710E-01 0.000E+00

     total cpu time spent up to now is      403.8 secs

     total energy              =    -713.87620198 Ry
     estimated scf accuracy    <       0.26998972 Ry

     iteration # 10     ecut=    60.00 Ry     beta= 0.40
     Davidson diagonalization with overlap
     ethr =  8.47E-05,  avg # of iterations =  2.0

     negative rho (up, down):  3.714E-01 0.000E+00

     total cpu time spent up to now is      439.3 secs

     total energy              =    -713.87454746 Ry
     estimated scf accuracy    <       0.04450905 Ry

     iteration # 11     ecut=    60.00 Ry     beta= 0.40
     Davidson diagonalization with overlap
     ethr =  4.74E-05,  avg # of iterations =  3.1

     negative rho (up, down):  3.713E-01 0.000E+00

     total cpu time spent up to now is      477.0 secs

     total energy              =    -713.87944856 Ry
     estimated scf accuracy    <       0.02617714 Ry

     iteration # 12     ecut=    60.00 Ry     beta= 0.40
     Davidson diagonalization with overlap
     ethr =  2.78E-05,  avg # of iterations =  1.9

     negative rho (up, down):  3.714E-01 0.000E+00

     total cpu time spent up to now is      511.0 secs

     total energy              =    -713.88205499 Ry
     estimated scf accuracy    <       0.00092551 Ry

     iteration # 13     ecut=    60.00 Ry     beta= 0.40
     Davidson diagonalization with overlap
     ethr =  9.85E-07,  avg # of iterations =  7.5

     negative rho (up, down):  3.714E-01 0.000E+00

     total cpu time spent up to now is      549.8 secs

     total energy              =    -713.88206225 Ry
     estimated scf accuracy    <       0.00028170 Ry

     iteration # 14     ecut=    60.00 Ry     beta= 0.40
     Davidson diagonalization with overlap
     ethr =  3.00E-07,  avg # of iterations =  2.2

     negative rho (up, down):  3.714E-01 0.000E+00

     total cpu time spent up to now is      585.9 secs

     total energy              =    -713.88209338 Ry
     estimated scf accuracy    <       0.00002456 Ry

     iteration # 15     ecut=    60.00 Ry     beta= 0.40
     Davidson diagonalization with overlap
     ethr =  2.61E-08,  avg # of iterations =  3.4

     negative rho (up, down):  3.714E-01 0.000E+00

     total cpu time spent up to now is      624.2 secs

     total energy              =    -713.88209753 Ry
     estimated scf accuracy    <       0.00001498 Ry

     iteration # 16     ecut=    60.00 Ry     beta= 0.40
     Davidson diagonalization with overlap
     ethr =  1.59E-08,  avg # of iterations =  2.4

     negative rho (up, down):  3.714E-01 0.000E+00

     total cpu time spent up to now is      660.0 secs

     total energy              =    -713.88209936 Ry
     estimated scf accuracy    <       0.00000160 Ry

     iteration # 17     ecut=    60.00 Ry     beta= 0.40
     Davidson diagonalization with overlap
     ethr =  1.70E-09,  avg # of iterations =  5.1

     negative rho (up, down):  3.714E-01 0.000E+00

     total cpu time spent up to now is      698.9 secs

     End of self-consistent calculation

          k = 0.0000 0.0000 0.0000 ( 10193 PWs)   bands (ev):

   -35.2217 -35.2147 -35.2038 -34.8221 -34.7928 -34.7831 -13.5234 -13.4088
   -13.4035 -13.2913 -13.2570 -13.2320 -13.2290 -13.2141 -13.2077 -12.9652
   -12.9648 -12.9494 -12.7974 -12.7238 -12.7124 -12.7105 -12.7007 -12.6947
     0.6465   1.2972   7.9917   8.0059   9.2050   9.3138   9.3356  10.5554
    10.6315  11.3418  11.3504  11.4274  11.4303  11.4442  11.4489  11.6551
    11.8354  13.2872  13.2919  14.0493  14.0597  14.0679  14.1093  14.1143
    14.2272  14.7172  14.7394  15.0984  15.1015  15.1885  15.2573  15.7634

          k = 0.0000 0.0000 0.5180 ( 10223 PWs)   bands (ev):

   -35.2158 -35.2110 -35.1997 -34.8210 -34.7897 -34.7799 -13.4866 -13.4062
   -13.4009 -13.3454 -13.3389 -13.3363 -13.2056 -13.1987 -13.1946 -12.9912
   -12.9268 -12.9215 -12.8158 -12.7961 -12.7675 -12.7566 -12.6983 -12.6927
     1.0984   1.4106   8.5388   8.5483   8.9570   9.1762   9.1874   9.4476
     9.9067  11.1584  11.3150  11.3189  11.3808  11.3857  12.2916  12.2988
    12.3499  12.9836  12.9922  13.1619  13.1729  13.3319  13.8124  13.8171
    14.2157  14.6388  14.8061  14.8068  14.9752  15.8506  15.8511  16.2799

          k = 0.0000 0.0000-1.0361 ( 10170 PWs)   bands (ev):

   -35.2101 -35.2074 -35.1955 -34.8200 -34.7866 -34.7766 -13.4473 -13.4323
   -13.4313 -13.4051 -13.3997 -13.3972 -13.1803 -13.1775 -13.1119 -13.0748
   -12.9122 -12.9030 -12.8730 -12.8365 -12.7641 -12.7511 -12.7381 -12.7326
     1.5362   1.6748   7.3660   8.5871   8.7618   8.7618   9.5565   9.5626
    10.7894  11.1355  11.1458  11.3949  11.4078  11.7212  12.1944  12.3372
    12.3397  12.3428  13.1097  13.1360  13.3338  13.3505  13.9019  13.9097
    14.0070  14.0215  14.0927  14.1865  16.1210  16.1233  16.2926  16.4216

          k = 0.0000 0.3849 0.0000 ( 10227 PWs)   bands (ev):

   -35.2196 -35.2161 -35.2043 -34.8246 -34.7914 -34.7822 -13.4961 -13.4370
   -13.4211 -13.2950 -13.2445 -13.2442 -13.2221 -13.2125 -13.1725 -13.0682
   -12.9234 -12.8506 -12.8053 -12.7422 -12.7381 -12.7086 -12.7055 -12.6998
     0.7891   1.1568   7.7933   7.9522   8.7873   9.3453   9.9378  10.7144
    10.7419  11.2038  11.2414  11.3023  11.4460  11.5862  11.7012  11.9712
    12.2281  12.6628  12.7110  13.6764  14.0329  14.2870  14.3739  14.4941
    14.6481  14.6767  14.7539  14.9866  15.0008  15.1124  15.3124  15.3745

          k = 0.0000 0.3849 0.5180 ( 10233 PWs)   bands (ev):

   -35.2145 -35.2121 -35.2000 -34.8223 -34.7890 -34.7794 -13.4709 -13.4252
   -13.4067 -13.3471 -13.3349 -13.3073 -13.2402 -13.1978 -13.1746 -13.0310
   -12.9247 -12.8934 -12.8186 -12.7895 -12.7532 -12.7423 -12.7181 -12.7046
     1.1742   1.3470   8.2927   8.4281   8.8107   9.1485   9.2928   9.5479
    10.2618  11.1563  11.3142  11.3389  11.4455  11.4554  12.2033  12.4924
    12.5732  12.6333  12.9063  13.1469  13.2921  13.4685  13.5499  13.7788
    14.2762  14.5516  14.9896  15.1614  15.3735  15.5107  15.7346  15.9778

          k = 0.0000 0.3849-1.0361 ( 10240 PWs)   bands (ev):

   -35.2094 -35.2080 -35.1955 -34.8199 -34.7867 -34.7767 -13.4449 -13.4422
   -13.4283 -13.4129 -13.3865 -13.3715 -13.2207 -13.1645 -13.1016 -13.0829
   -12.9504 -12.9200 -12.8354 -12.8328 -12.7569 -12.7457 -12.7425 -12.7286
     1.5598   1.6492   7.5608   8.2423   8.7474   8.9618   9.3612   9.4568
    10.6318  11.3566  11.3785  11.4046  11.4086  11.6956  12.1198  12.4192
    12.4256  12.5415  12.8578  13.0507  13.0816  13.3557  13.3819  13.4091
    14.3418  14.5827  14.9457  14.9929  15.8347  16.0201  16.3616  16.3621

          k = 0.3333 0.5774 0.0000 ( 10290 PWs)   bands (ev):

   -35.2182 -35.2170 -35.2048 -34.8256 -34.7913 -34.7814 -13.4677 -13.4644
   -13.4288 -13.2526 -13.2510 -13.2369 -13.2311 -13.2282 -13.2199 -13.0168
   -12.8926 -12.8863 -12.8093 -12.7427 -12.7326 -12.7235 -12.7054 -12.6979
     0.9720   0.9767   7.4490   8.4556   8.4572   9.5727   9.8270  10.7982
    10.9961  11.0059  11.2531  11.2612  11.4841  11.4887  11.8789  11.8884
    12.3973  12.6398  12.6521  13.8368  14.1913  14.1948  14.2129  14.2874
    14.3443  14.3481  14.7883  14.7914  14.8984  15.4815  15.5262  15.7146

          k = 0.3333 0.5774 0.5180 ( 10245 PWs)   bands (ev):

   -35.2137 -35.2126 -35.2002 -34.8227 -34.7890 -34.7790 -13.4518 -13.4478
   -13.4050 -13.3352 -13.3335 -13.3259 -13.1995 -13.1988 -13.1960 -13.0595
   -12.9078 -12.9017 -12.8198 -12.7529 -12.7435 -12.7431 -12.7340 -12.7248
     1.2627   1.2652   8.0631   8.5724   8.5747   9.4385   9.4405   9.4512
    10.2542  11.1627  11.3125  11.3197  11.4960  11.4986  12.2251  12.3360
    12.3373  12.9412  13.1484  13.2208  13.2287  13.2872  13.2979  13.9674
    14.4794  14.4802  15.0658  15.0718  15.6344  15.6383  15.6985  15.7079

          k = 0.3333 0.5774-1.0361 ( 10248 PWs)   bands (ev):

   -35.2093 -35.2081 -35.1956 -34.8199 -34.7867 -34.7767 -13.4327 -13.4286
   -13.4271 -13.4263 -13.3870 -13.3800 -13.2413 -13.1297 -13.1245 -13.0587
   -12.9611 -12.9576 -12.8311 -12.7947 -12.7855 -12.7501 -12.7304 -12.7219
     1.6035   1.6040   7.8658   7.8712   8.7999   9.1768   9.1843   9.3034
    10.5642  11.3678  11.3825  11.4914  11.5033  11.7030  11.8904  12.6688
    12.7412  12.7543  12.9168  12.9190  12.9200  13.1074  13.1224  13.3071
    14.6144  14.6175  15.4035  15.4047  15.7789  16.0484  16.2399  16.2571

          k =-0.3333 0.1925 0.0000 ( 10227 PWs)   bands (ev):

   -35.2200 -35.2154 -35.2046 -34.8242 -34.7926 -34.7813 -13.4966 -13.4320
   -13.4260 -13.2948 -13.2447 -13.2427 -13.2201 -13.2144 -13.1750 -13.0658
   -12.9234 -12.8560 -12.8048 -12.7355 -12.7339 -12.7153 -12.7101 -12.6959
     0.7910   1.1547   7.8006   7.9515   8.7868   9.3331   9.9370  10.7130
    10.7467  11.2115  11.2409  11.2957  11.4429  11.5839  11.7066  11.9732
    12.2296  12.6629  12.7115  13.6699  14.0340  14.2786  14.3697  14.5015
    14.6523  14.6746  14.7548  14.9821  15.0085  15.1018  15.3096  15.3907

          k = 0.0000 0.3849-0.5180 ( 10233 PWs)   bands (ev):

   -35.2145 -35.2121 -35.2000 -34.8223 -34.7890 -34.7794 -13.4709 -13.4252
   -13.4067 -13.3471 -13.3349 -13.3073 -13.2402 -13.1978 -13.1746 -13.0310
   -12.9247 -12.8935 -12.8186 -12.7893 -12.7537 -12.7421 -12.7179 -12.7047
     1.1742   1.3470   8.2927   8.4281   8.8107   9.1486   9.2926   9.5481
    10.2618  11.1563  11.3147  11.3383  11.4452  11.4557  12.2034  12.4925
    12.5732  12.6334  12.9059  13.1473  13.2915  13.4686  13.5501  13.7788
    14.2764  14.5518  14.9892  15.1621  15.3734  15.5101  15.7339  15.9782

          k =-0.3333 0.1925 0.5180 ( 10233 PWs)   bands (ev):

   -35.2149 -35.2114 -35.2002 -34.8221 -34.7896 -34.7790 -13.4722 -13.4195
   -13.4108 -13.3474 -13.3346 -13.3088 -13.2401 -13.1961 -13.1757 -13.0298
   -12.9212 -12.8992 -12.8184 -12.7866 -12.7588 -12.7384 -12.7175 -12.7053
     1.1751   1.3459   8.2944   8.4315   8.8062   9.1433   9.2934   9.5541
    10.2603  11.1532  11.3192  11.3391  11.4437  11.4573  12.2020  12.4920
    12.5713  12.6349  12.8943  13.1424  13.2966  13.4715  13.5572  13.7746
    14.2770  14.5483  15.0041  15.1588  15.3722  15.5139  15.7252  15.9848

          k =-0.3333 0.1925-1.0361 ( 10240 PWs)   bands (ev):

   -35.2099 -35.2074 -35.1956 -34.8200 -34.7866 -34.7767 -13.4471 -13.4418
   -13.4289 -13.4074 -13.3896 -13.3717 -13.2226 -13.1601 -13.1046 -13.0832
   -12.9525 -12.9146 -12.8333 -12.8331 -12.7630 -12.7529 -12.7387 -12.7232
     1.5599   1.6488   7.5625   8.2388   8.7478   8.9657   9.3629   9.4553
    10.6335  11.3462  11.3852  11.4004  11.4142  11.6992  12.1134  12.4192
    12.4260  12.5393  12.8503  13.0483  13.0920  13.3514  13.3834  13.4122
    14.3369  14.5888  14.9471  14.9994  15.8335  16.0217  16.3531  16.3612

          k = 0.3333-0.5774-0.5180 ( 10245 PWs)   bands (ev):

   -35.2137 -35.2126 -35.2002 -34.8227 -34.7890 -34.7790 -13.4516 -13.4476
   -13.4050 -13.3355 -13.3338 -13.3263 -13.1988 -13.1987 -13.1957 -13.0604
   -12.9077 -12.9015 -12.8198 -12.7519 -12.7423 -12.7419 -12.7357 -12.7264
     1.2627   1.2652   8.0617   8.5674   8.5696   9.4448   9.4453   9.4557
    10.2520  11.1635  11.3083  11.3156  11.4977  11.5001  12.2310  12.3397
    12.3411  12.9539  13.1500  13.2158  13.2236  13.2990  13.3095  13.9510
    14.4609  14.4616  15.0754  15.0820  15.6083  15.6336  15.6976  15.7079

     the Fermi energy is    13.9816 ev

!    total energy              =    -713.88209904 Ry
     estimated scf accuracy    <       0.00000055 Ry
     smearing contrib. (-TS)   =      -0.00307614 Ry
     internal energy E=F+TS    =    -713.87902290 Ry

     The total energy is F=E-TS. E is the sum of the following terms:
     one-electron contribution =    -152.00810472 Ry
     hartree contribution      =     124.48038602 Ry
     xc contribution           =    -144.35236256 Ry
     ewald contribution        =    -541.99894164 Ry

     convergence has been achieved in  17 iterations

     negative rho (up, down):  3.714E-01 0.000E+00

     Forces acting on atoms (cartesian axes, Ry/au):

     atom    1 type  1   force =    -0.00252903   -0.00405633   -0.00202327
     atom    2 type  1   force =    -0.00224837   -0.00421837   -0.00202327
     atom    3 type  1   force =     0.00424912    0.00735969   -0.00195391
     atom    4 type  1   force =     0.00369682   -0.00189097    0.00264988
     atom    5 type  1   force =    -0.00348604    0.00225605    0.00264988
     atom    6 type  1   force =    -0.00056606   -0.00098044    0.00271874
     atom    7 type  2   force =    -0.00162779   -0.00281942    0.00300897
     atom    8 type  3   force =    -0.00138607    0.00370011   -0.00251351
     atom    9 type  3   force =     0.00389743    0.00064968   -0.00251351

     Total force =     0.015832     Total SCF correction =     0.002015
     SCF correction compared to forces is large: reduce conv_thr to get better values

     BFGS Geometry Optimization
     Energy error            =      2.5E-04 Ry
     Gradient error          =      7.4E-03 Ry/Bohr

     number of scf cycles    =   1
     number of bfgs steps    =   0

     energy             new  =    -713.8820990378 Ry

     new trust radius        =       0.0087199707 bohr
     new conv_thr            =       0.0000010000 Ry


ATOMIC_POSITIONS (angstrom)
Zr               1.8345916944       -0.0021465182       -0.0010706659
Zr              -0.9191547865        1.5877297343       -0.0010706659
Zr               2.9414855384        5.0948025828       -0.0010339621
Zr               4.5716302729       -0.0010006582        1.8576462551
Zr              -2.2866817318        3.9586478529        1.8576462551
Zr               1.5720654541        2.7228971713        1.8576826932
Ni              -0.0008613920       -0.0014919747        1.8578362790
Te              -0.0007334783        4.4558710138       -0.0013300942
Te               3.8592644288        2.2273007961       -0.0013300942



     Writing config-only to output data dir ./tmp/Zr6NiTe2.save/ :
     XML data file
     NEW-OLD atomic charge density approx. for the potential

     Check: negative core charge=   -0.000002

     negative rho (up, down):  3.711E-01 0.000E+00

     total cpu time spent up to now is      709.3 secs

     Self-consistent Calculation

     iteration #  1     ecut=    60.00 Ry     beta= 0.40
     Davidson diagonalization with overlap
     ethr =  1.00E-06,  avg # of iterations =  4.0

     negative rho (up, down):  3.712E-01 0.000E+00

     total cpu time spent up to now is      770.0 secs

     total energy              =    -713.88215697 Ry
     estimated scf accuracy    <       0.00030866 Ry

     iteration #  2     ecut=    60.00 Ry     beta= 0.40
     Davidson diagonalization with overlap
     ethr =  3.28E-07,  avg # of iterations =  4.9

     negative rho (up, down):  3.711E-01 0.000E+00

     total cpu time spent up to now is      815.7 secs

     total energy              =    -713.88196725 Ry
     estimated scf accuracy    <       0.00475552 Ry

     iteration #  3     ecut=    60.00 Ry     beta= 0.40
     Davidson diagonalization with overlap
     ethr =  3.28E-07,  avg # of iterations =  4.3

     negative rho (up, down):  3.711E-01 0.000E+00

     total cpu time spent up to now is      856.8 secs

     total energy              =    -713.88230329 Ry
     estimated scf accuracy    <       0.00010583 Ry

     iteration #  4     ecut=    60.00 Ry     beta= 0.40
     Davidson diagonalization with overlap
     ethr =  1.13E-07,  avg # of iterations =  2.5

     negative rho (up, down):  3.711E-01 0.000E+00

     total cpu time spent up to now is      892.9 secs

     total energy              =    -713.88231559 Ry
     estimated scf accuracy    <       0.00000502 Ry

     iteration #  5     ecut=    60.00 Ry     beta= 0.40
     Davidson diagonalization with overlap
     ethr =  5.34E-09,  avg # of iterations =  4.4

     negative rho (up, down):  3.711E-01 0.000E+00

     total cpu time spent up to now is      939.9 secs

     total energy              =    -713.88231635 Ry
     estimated scf accuracy    <       0.00000472 Ry

     iteration #  6     ecut=    60.00 Ry     beta= 0.40
     Davidson diagonalization with overlap
     ethr =  5.02E-09,  avg # of iterations =  2.3

     negative rho (up, down):  3.711E-01 0.000E+00

     total cpu time spent up to now is      976.5 secs

     End of self-consistent calculation

          k = 0.0000 0.0000 0.0000 ( 10193 PWs)   bands (ev):

   -35.2210 -35.2138 -35.2051 -34.8207 -34.7909 -34.7831 -13.5224 -13.4081
   -13.4032 -13.2916 -13.2566 -13.2319 -13.2292 -13.2134 -13.2079 -12.9640
   -12.9639 -12.9516 -12.7951 -12.7214 -12.7124 -12.7105 -12.6984 -12.6942
     0.6494   1.2995   7.9961   8.0062   9.2037   9.3189   9.3347  10.5601
    10.6250  11.3392  11.3452  11.4209  11.4228  11.4451  11.4485  11.6595
    11.8314  13.2904  13.2922  14.0542  14.0587  14.0665  14.1126  14.1153
    14.2241  14.7189  14.7345  15.0967  15.0990  15.1930  15.2547  15.7635

          k = 0.0000 0.0000 0.5180 ( 10223 PWs)   bands (ev):

   -35.2151 -35.2102 -35.2010 -34.8197 -34.7878 -34.7799 -13.4858 -13.4054
   -13.4007 -13.3449 -13.3387 -13.3360 -13.2061 -13.1982 -13.1945 -12.9933
   -12.9257 -12.9214 -12.8134 -12.7953 -12.7647 -12.7565 -12.6969 -12.6925
     1.1011   1.4134   8.5416   8.5486   8.9596   9.1811   9.1894   9.4509
     9.9048  11.1516  11.3099  11.3126  11.3775  11.3809  12.2939  12.2981
    12.3462  12.9869  12.9937  13.1641  13.1719  13.3251  13.8124  13.8159
    14.2187  14.6365  14.8068  14.8078  14.9760  15.8497  15.8518  16.2866

          k = 0.0000 0.0000-1.0361 ( 10170 PWs)   bands (ev):

   -35.2093 -35.2066 -35.1969 -34.8187 -34.7846 -34.7766 -13.4465 -13.4323
   -13.4308 -13.4043 -13.3995 -13.3964 -13.1798 -13.1770 -13.1128 -13.0772
   -12.9107 -12.9035 -12.8719 -12.8342 -12.7604 -12.7509 -12.7375 -12.7328
     1.5395   1.6772   7.3690   8.5894   8.7637   8.7638   9.5604   9.5658
    10.7847  11.1340  11.1411  11.3924  11.4014  11.7131  12.1923  12.3375
    12.3395  12.3405  13.1144  13.1342  13.3358  13.3501  13.9034  13.9092
    14.0067  14.0174  14.0956  14.1846  16.1235  16.1236  16.2898  16.4180

          k = 0.0000 0.3849 0.0000 ( 10227 PWs)   bands (ev):

   -35.2188 -35.2152 -35.2056 -34.8232 -34.7895 -34.7822 -13.4953 -13.4363
   -13.4209 -13.2952 -13.2442 -13.2440 -13.2215 -13.2127 -13.1724 -13.0695
   -12.9226 -12.8509 -12.8030 -12.7399 -12.7369 -12.7079 -12.7049 -12.6993
     0.7921   1.1590   7.7960   7.9539   8.7894   9.3463   9.9371  10.7071
    10.7465  11.2017  11.2389  11.2984  11.4392  11.5850  11.7009  11.9707
    12.2276  12.6634  12.7114  13.6752  14.0338  14.2889  14.3764  14.4956
    14.6451  14.6762  14.7550  14.9881  15.0025  15.1091  15.3117  15.3761

          k = 0.0000 0.3849 0.5180 ( 10233 PWs)   bands (ev):

   -35.2137 -35.2112 -35.2013 -34.8209 -34.7871 -34.7794 -13.4701 -13.4245
   -13.4064 -13.3468 -13.3346 -13.3068 -13.2405 -13.1975 -13.1745 -13.0329
   -12.9238 -12.8933 -12.8162 -12.7882 -12.7518 -12.7414 -12.7170 -12.7041
     1.1769   1.3496   8.2950   8.4304   8.8133   9.1507   9.2952   9.5519
    10.2597  11.1492  11.3097  11.3322  11.4411  11.4511  12.2028  12.4920
    12.5718  12.6314  12.9064  13.1482  13.2936  13.4701  13.5502  13.7761
    14.2778  14.5502  14.9915  15.1611  15.3749  15.5111  15.7360  15.9766

          k = 0.0000 0.3849-1.0361 ( 10240 PWs)   bands (ev):

   -35.2086 -35.2072 -35.1970 -34.8186 -34.7847 -34.7767 -13.4442 -13.4419
   -13.4279 -13.4121 -13.3861 -13.3707 -13.2206 -13.1640 -13.1018 -13.0851
   -12.9500 -12.9193 -12.8341 -12.8305 -12.7568 -12.7442 -12.7422 -12.7268
     1.5630   1.6518   7.5640   8.2444   8.7496   8.9645   9.3641   9.4601
    10.6275  11.3513  11.3751  11.4001  11.4025  11.6884  12.1190  12.4181
    12.4249  12.5424  12.8582  13.0517  13.0829  13.3543  13.3808  13.4086
    14.3413  14.5824  14.9459  14.9969  15.8378  16.0220  16.3586  16.3650

          k = 0.3333 0.5774 0.0000 ( 10290 PWs)   bands (ev):

   -35.2173 -35.2162 -35.2061 -34.8243 -34.7893 -34.7814 -13.4670 -13.4637
   -13.4283 -13.2521 -13.2514 -13.2371 -13.2304 -13.2277 -13.2201 -13.0188
   -12.8908 -12.8857 -12.8071 -12.7418 -12.7303 -12.7236 -12.7039 -12.6979
     0.9754   0.9784   7.4502   8.4582   8.4594   9.5763   9.8253  10.7906
    10.9999  11.0058  11.2513  11.2578  11.4801  11.4835  11.8799  11.8847
    12.3949  12.6435  12.6516  13.8347  14.1953  14.1976  14.2101  14.2882
    14.3448  14.3493  14.7910  14.7918  14.8990  15.4778  15.5214  15.7158

          k = 0.3333 0.5774 0.5180 ( 10245 PWs)   bands (ev):

   -35.2129 -35.2117 -35.2016 -34.8214 -34.7870 -34.7791 -13.4511 -13.4472
   -13.4045 -13.3350 -13.3331 -13.3255 -13.1992 -13.1986 -13.1958 -13.0618
   -12.9065 -12.9015 -12.8174 -12.7508 -12.7432 -12.7424 -12.7322 -12.7249
     1.2658   1.2675   8.0643   8.5752   8.5764   9.4433   9.4452   9.4530
    10.2515  11.1559  11.3073  11.3123  11.4922  11.4938  12.2221  12.3366
    12.3369  12.9423  13.1523  13.2214  13.2268  13.2916  13.2985  13.9634
    14.4766  14.4787  15.0670  15.0709  15.6338  15.6374  15.7004  15.7094

          k = 0.3333 0.5774-1.0361 ( 10248 PWs)   bands (ev):

   -35.2084 -35.2073 -35.1971 -34.8186 -34.7847 -34.7767 -13.4318 -13.4282
   -13.4269 -13.4258 -13.3863 -13.3795 -13.2412 -13.1292 -13.1247 -13.0610
   -12.9603 -12.9572 -12.8288 -12.7928 -12.7857 -12.7503 -12.7274 -12.7213
     1.6066   1.6066   7.8698   7.8728   8.8016   9.1804   9.1864   9.3069
    10.5596  11.3645  11.3752  11.4879  11.4962  11.6957  11.8894  12.6735
    12.7434  12.7530  12.9167  12.9184  12.9208  13.1086  13.1193  13.3023
    14.6124  14.6182  15.4068  15.4069  15.7837  16.0513  16.2430  16.2583

          k =-0.3333 0.1925 0.0000 ( 10227 PWs)   bands (ev):

   -35.2192 -35.2146 -35.2059 -34.8229 -34.7906 -34.7814 -13.4959 -13.4318
   -13.4251 -13.2949 -13.2442 -13.2430 -13.2197 -13.2143 -13.1744 -13.0677
   -12.9222 -12.8551 -12.8027 -12.7349 -12.7337 -12.7134 -12.7083 -12.6959
     0.7933   1.1576   7.8011   7.9533   8.7884   9.3384   9.9371  10.7061
    10.7494  11.2076  11.2388  11.2934  11.4372  11.5837  11.7038  11.9719
    12.2286  12.6631  12.7121  13.6703  14.0353  14.2841  14.3737  14.5017
    14.6480  14.6752  14.7554  14.9832  15.0084  15.1011  15.3085  15.3879

          k = 0.0000 0.3849-0.5180 ( 10233 PWs)   bands (ev):

   -35.2137 -35.2112 -35.2013 -34.8209 -34.7871 -34.7794 -13.4701 -13.4245
   -13.4064 -13.3468 -13.3346 -13.3068 -13.2405 -13.1975 -13.1745 -13.0329
   -12.9238 -12.8933 -12.8162 -12.7881 -12.7521 -12.7413 -12.7169 -12.7042
     1.1769   1.3496   8.2950   8.4304   8.8133   9.1508   9.2951   9.5520
    10.2597  11.1492  11.3100  11.3319  11.4410  11.4513  12.2028  12.4920
    12.5718  12.6315  12.9062  13.1484  13.2933  13.4701  13.5502  13.7761
    14.2780  14.5503  14.9913  15.1615  15.3748  15.5108  15.7355  15.9769

          k =-0.3333 0.1925 0.5180 ( 10233 PWs)   bands (ev):

   -35.2141 -35.2106 -35.2015 -34.8208 -34.7876 -34.7790 -13.4714 -13.4193
   -13.4100 -13.3470 -13.3342 -13.3082 -13.2403 -13.1960 -13.1756 -13.0320
   -12.9208 -12.8979 -12.8161 -12.7861 -12.7560 -12.7383 -12.7167 -12.7045
     1.1776   1.3488   8.2959   8.4329   8.8105   9.1468   9.2960   9.5560
    10.2590  11.1470  11.3129  11.3327  11.4400  11.4524  12.2009  12.4920
    12.5700  12.6322  12.8981  13.1436  13.2973  13.4735  13.5553  13.7739
    14.2772  14.5482  15.0018  15.1599  15.3735  15.5143  15.7266  15.9823

          k =-0.3333 0.1925-1.0361 ( 10240 PWs)   bands (ev):

   -35.2091 -35.2066 -35.1971 -34.8186 -34.7847 -34.7767 -13.4462 -13.4414
   -13.4285 -13.4071 -13.3889 -13.3710 -13.2224 -13.1599 -13.1044 -13.0852
   -12.9518 -12.9152 -12.8325 -12.8307 -12.7619 -12.7494 -12.7390 -12.7226
     1.5628   1.6517   7.5648   8.2423   8.7495   8.9679   9.3655   9.4592
    10.6286  11.3436  11.3799  11.3966  11.4072  11.6910  12.1139  12.4198
    12.4246  12.5406  12.8539  13.0487  13.0902  13.3516  13.3813  13.4098
    14.3356  14.5889  14.9468  15.0021  15.8357  16.0224  16.3528  16.3646

          k = 0.3333-0.5774-0.5180 ( 10245 PWs)   bands (ev):

   -35.2129 -35.2117 -35.2016 -34.8214 -34.7870 -34.7791 -13.4509 -13.4471
   -13.4045 -13.3352 -13.3334 -13.3258 -13.1986 -13.1986 -13.1956 -13.0625
   -12.9064 -12.9014 -12.8174 -12.7500 -12.7421 -12.7418 -12.7334 -12.7260
     1.2658   1.2675   8.0633   8.5716   8.5728   9.4483   9.4487   9.4559
    10.2497  11.1565  11.3043  11.3093  11.4933  11.4949  12.2264  12.3394
    12.3396  12.9516  13.1535  13.2177  13.2230  13.3005  13.3072  13.9514
    14.4630  14.4652  15.0742  15.0785  15.6140  15.6337  15.6998  15.7092

     the Fermi energy is    13.9814 ev

!    total energy              =    -713.88231618 Ry
     estimated scf accuracy    <       0.00000082 Ry
     smearing contrib. (-TS)   =      -0.00304586 Ry
     internal energy E=F+TS    =    -713.87927032 Ry

     The total energy is F=E-TS. E is the sum of the following terms:
     one-electron contribution =    -152.36688504 Ry
     hartree contribution      =     124.66347688 Ry
     xc contribution           =    -144.35326793 Ry
     ewald contribution        =    -541.82259423 Ry

     convergence has been achieved in   6 iterations

     negative rho (up, down):  3.711E-01 0.000E+00

     Forces acting on atoms (cartesian axes, Ry/au):

     atom    1 type  1   force =    -0.00178916   -0.00279878   -0.00149406
     atom    2 type  1   force =    -0.00152923   -0.00294885   -0.00149406
     atom    3 type  1   force =     0.00312863    0.00541894   -0.00146050
     atom    4 type  1   force =     0.00315313   -0.00135177    0.00182738
     atom    5 type  1   force =    -0.00274723    0.00205480    0.00182738
     atom    6 type  1   force =    -0.00057163   -0.00099010    0.00184952
     atom    7 type  2   force =    -0.00134683   -0.00233279    0.00264469
     atom    8 type  3   force =    -0.00097344    0.00252771   -0.00185017
     atom    9 type  3   force =     0.00267578    0.00042083   -0.00185017

     Total force =     0.011770     Total SCF correction =     0.002420
     SCF correction compared to forces is large: reduce conv_thr to get better values
     Energy error            =      2.2E-04 Ry
     Gradient error          =      5.4E-03 Ry/Bohr

     number of scf cycles    =   2
     number of bfgs steps    =   1

     energy             old  =    -713.8820990378 Ry
     energy             new  =    -713.8823161778 Ry

     CASE: energy            _new < energy            _old

     new trust radius        =       0.0095919678 bohr
     new conv_thr            =       0.0000000217 Ry


ATOMIC_POSITIONS (angstrom)
Zr               1.8331771754       -0.0043603890       -0.0022508706
Zr              -0.9203647953        1.5853977894       -0.0022508706
Zr               2.9439570709        5.0990834027       -0.0021873781
Zr               4.5741144888       -0.0020691476        1.8590917500
Zr              -2.2888491788        3.9602650023        1.8590917500
Zr               1.5716162745        2.7221191693        1.8591461212
Ni              -0.0019230621       -0.0033308412        1.8599188737
Te              -0.0015032024        4.4578708837       -0.0027916877
Te               3.8613812290        2.2276341304       -0.0027916877



     Writing config-only to output data dir ./tmp/Zr6NiTe2.save/ :
     XML data file
     NEW-OLD atomic charge density approx. for the potential

     Check: negative core charge=   -0.000002

     negative rho (up, down):  3.710E-01 0.000E+00

     total cpu time spent up to now is      986.9 secs

     Self-consistent Calculation

     iteration #  1     ecut=    60.00 Ry     beta= 0.40
     Davidson diagonalization with overlap
     ethr =  1.00E-06,  avg # of iterations =  4.0

     negative rho (up, down):  3.710E-01 0.000E+00

     total cpu time spent up to now is     1052.0 secs

     total energy              =    -713.88242185 Ry
     estimated scf accuracy    <       0.00010539 Ry

     iteration #  2     ecut=    60.00 Ry     beta= 0.40
     Davidson diagonalization with overlap
     ethr =  1.12E-07,  avg # of iterations =  4.3

     negative rho (up, down):  3.710E-01 0.000E+00

     total cpu time spent up to now is     1097.6 secs

     total energy              =    -713.88237098 Ry
     estimated scf accuracy    <       0.00132863 Ry

     iteration #  3     ecut=    60.00 Ry     beta= 0.40
     Davidson diagonalization with overlap
     ethr =  1.12E-07,  avg # of iterations =  3.9

     negative rho (up, down):  3.710E-01 0.000E+00

     total cpu time spent up to now is     1138.2 secs

     total energy              =    -713.88246850 Ry
     estimated scf accuracy    <       0.00004162 Ry

     iteration #  4     ecut=    60.00 Ry     beta= 0.40
     Davidson diagonalization with overlap
     ethr =  4.43E-08,  avg # of iterations =  2.8

     negative rho (up, down):  3.710E-01 0.000E+00

     total cpu time spent up to now is     1176.2 secs

     total energy              =    -713.88247390 Ry
     estimated scf accuracy    <       0.00000726 Ry

     iteration #  5     ecut=    60.00 Ry     beta= 0.40
     Davidson diagonalization with overlap
     ethr =  7.72E-09,  avg # of iterations =  1.8

     negative rho (up, down):  3.710E-01 0.000E+00

     total cpu time spent up to now is     1210.7 secs

     total energy              =    -713.88247435 Ry
     estimated scf accuracy    <       0.00000096 Ry

     iteration #  6     ecut=    60.00 Ry     beta= 0.40
     Davidson diagonalization with overlap
     ethr =  1.03E-09,  avg # of iterations =  3.9

     negative rho (up, down):  3.710E-01 0.000E+00

     total cpu time spent up to now is     1250.3 secs

     total energy              =    -713.88247446 Ry
     estimated scf accuracy    <       0.00000071 Ry

     iteration #  7     ecut=    60.00 Ry     beta= 0.40
     Davidson diagonalization with overlap
     ethr =  7.58E-10,  avg # of iterations =  2.6

     negative rho (up, down):  3.710E-01 0.000E+00

     total cpu time spent up to now is     1286.1 secs

     total energy              =    -713.88247454 Ry
     estimated scf accuracy    <       0.00000008 Ry

     iteration #  8     ecut=    60.00 Ry     beta= 0.40
     Davidson diagonalization with overlap
     ethr =  9.02E-11,  avg # of iterations =  3.4

     negative rho (up, down):  3.710E-01 0.000E+00

     total cpu time spent up to now is     1325.2 secs

     total energy              =    -713.88247455 Ry
     estimated scf accuracy    <       0.00000003 Ry

     iteration #  9     ecut=    60.00 Ry     beta= 0.40
     Davidson diagonalization with overlap
     ethr =  3.37E-11,  avg # of iterations =  2.4

     negative rho (up, down):  3.710E-01 0.000E+00

     total cpu time spent up to now is     1360.7 secs

     End of self-consistent calculation

          k = 0.0000 0.0000 0.0000 ( 10193 PWs)   bands (ev):

   -35.2203 -35.2125 -35.2093 -34.8184 -34.7877 -34.7814 -13.5221 -13.4069
   -13.4050 -13.2917 -13.2567 -13.2314 -13.2306 -13.2123 -13.2103 -12.9624
   -12.9616 -12.9539 -12.7914 -12.7186 -12.7107 -12.7088 -12.6955 -12.6924
     0.6521   1.3016   8.0005   8.0065   9.2028   9.3238   9.3336  10.5652
    10.6184  11.3368  11.3399  11.4142  11.4150  11.4461  11.4484  11.6633
    11.8275  13.2930  13.2935  14.0579  14.0590  14.0655  14.1165  14.1165
    14.2212  14.7195  14.7292  15.0942  15.0963  15.1987  15.2508  15.7640

          k = 0.0000 0.0000 0.5180 ( 10223 PWs)   bands (ev):

   -35.2142 -35.2088 -35.2055 -34.8173 -34.7845 -34.7781 -13.4855 -13.4043
   -13.4025 -13.3444 -13.3382 -13.3376 -13.2068 -13.1971 -13.1959 -12.9955
   -12.9239 -12.9203 -12.8097 -12.7934 -12.7607 -12.7549 -12.6948 -12.6908
     1.1036   1.4160   8.5443   8.5488   8.9621   9.1862   9.1914   9.4542
     9.9032  11.1446  11.3048  11.3060  11.3743  11.3759  12.2961  12.2977
    12.3425  12.9910  12.9956  13.1662  13.1712  13.3185  13.8125  13.8142
    14.2224  14.6333  14.8075  14.8085  14.9770  15.8479  15.8521  16.2939

          k = 0.0000 0.0000-1.0361 ( 10170 PWs)   bands (ev):

   -35.2081 -35.2052 -35.2017 -34.8164 -34.7813 -34.7749 -13.4463 -13.4318
   -13.4316 -13.4031 -13.4013 -13.3963 -13.1788 -13.1779 -13.1146 -13.0791
   -12.9085 -12.9028 -12.8695 -12.8305 -12.7557 -12.7492 -12.7364 -12.7315
     1.5428   1.6794   7.3720   8.5913   8.7655   8.7655   9.5646   9.5689
    10.7800  11.1328  11.1360  11.3903  11.3948  11.7047  12.1903  12.3367
    12.3385  12.3416  13.1185  13.1324  13.3388  13.3495  13.9047  13.9084
    14.0068  14.0132  14.0995  14.1822  16.1240  16.1255  16.2856  16.4140

          k = 0.0000 0.3849 0.0000 ( 10227 PWs)   bands (ev):

   -35.2179 -35.2139 -35.2101 -34.8209 -34.7863 -34.7805 -13.4951 -13.4356
   -13.4221 -13.2953 -13.2442 -13.2441 -13.2209 -13.2145 -13.1730 -13.0700
   -12.9211 -12.8508 -12.7993 -12.7368 -12.7348 -12.7058 -12.7030 -12.6973
     0.7950   1.1609   7.7986   7.9556   8.7915   9.3473   9.9367  10.6996
    10.7512  11.1998  11.2361  11.2945  11.4324  11.5840  11.7008  11.9704
    12.2269  12.6640  12.7118  13.6744  14.0347  14.2912  14.3796  14.4974
    14.6410  14.6763  14.7558  14.9895  15.0047  15.1053  15.3107  15.3781

          k = 0.0000 0.3849 0.5180 ( 10233 PWs)   bands (ev):

   -35.2126 -35.2099 -35.2060 -34.8185 -34.7838 -34.7777 -13.4702 -13.4236
   -13.4076 -13.3468 -13.3348 -13.3074 -13.2407 -13.1973 -13.1753 -13.0345
   -12.9221 -12.8926 -12.8124 -12.7859 -12.7493 -12.7392 -12.7149 -12.7024
     1.1796   1.3520   8.2972   8.4327   8.8159   9.1529   9.2977   9.5557
    10.2579  11.1419  11.3051  11.3255  11.4366  11.4469  12.2023  12.4916
    12.5702  12.6294  12.9069  13.1495  13.2956  13.4720  13.5505  13.7736
    14.2795  14.5485  14.9932  15.1605  15.3765  15.5114  15.7373  15.9747

          k = 0.0000 0.3849-1.0361 ( 10240 PWs)   bands (ev):

   -35.2073 -35.2058 -35.2018 -34.8163 -34.7814 -34.7750 -13.4444 -13.4418
   -13.4284 -13.4113 -13.3872 -13.3708 -13.2212 -13.1631 -13.1034 -13.0868
   -12.9485 -12.9177 -12.8318 -12.8267 -12.7557 -12.7420 -12.7405 -12.7236
     1.5661   1.6541   7.5672   8.2463   8.7516   8.9674   9.3670   9.4634
    10.6232  11.3456  11.3717  11.3953  11.3968  11.6809  12.1184  12.4162
    12.4259  12.5438  12.8588  13.0527  13.0839  13.3530  13.3800  13.4083
    14.3407  14.5823  14.9452  15.0021  15.8407  16.0237  16.3545  16.3685

          k = 0.3333 0.5774 0.0000 ( 10290 PWs)   bands (ev):

   -35.2159 -35.2149 -35.2110 -34.8220 -34.7861 -34.7797 -13.4660 -13.4646
   -13.4288 -13.2523 -13.2515 -13.2372 -13.2293 -13.2278 -13.2226 -13.0210
   -12.8883 -12.8842 -12.8033 -12.7399 -12.7273 -12.7223 -12.7015 -12.6963
     0.9787   0.9800   7.4514   8.4609   8.4613   9.5799   9.8239  10.7827
    11.0036  11.0058  11.2500  11.2541  11.4762  11.4782  11.8809  11.8813
    12.3918  12.6471  12.6514  13.8330  14.1992  14.2011  14.2074  14.2885
    14.3452  14.3502  14.7925  14.7945  14.8992  15.4733  15.5169  15.7167

          k = 0.3333 0.5774 0.5180 ( 10245 PWs)   bands (ev):

   -35.2115 -35.2105 -35.2065 -34.8191 -34.7837 -34.7773 -13.4499 -13.4482
   -13.4050 -13.3344 -13.3339 -13.3261 -13.1989 -13.1980 -13.1973 -13.0638
   -12.9044 -12.9005 -12.8136 -12.7483 -12.7414 -12.7407 -12.7291 -12.7235
     1.2687   1.2697   8.0655   8.5781   8.5781   9.4481   9.4494   9.4553
    10.2490  11.1487  11.3021  11.3046  11.4883  11.4889  12.2188  12.3363
    12.3379  12.9436  13.1565  13.2217  13.2249  13.2965  13.3000  13.9593
    14.4730  14.4779  15.0678  15.0693  15.6322  15.6365  15.7028  15.7109

          k = 0.3333 0.5774-1.0361 ( 10248 PWs)   bands (ev):

   -35.2070 -35.2060 -35.2020 -34.8162 -34.7814 -34.7750 -13.4305 -13.4285
   -13.4272 -13.4269 -13.3862 -13.3800 -13.2414 -13.1281 -13.1268 -13.0629
   -12.9587 -12.9555 -12.8249 -12.7904 -12.7843 -12.7497 -12.7235 -12.7193
     1.6091   1.6097   7.8736   7.8744   8.8032   9.1840   9.1885   9.3106
    10.5549  11.3616  11.3674  11.4847  11.4887  11.6881  11.8886  12.6787
    12.7461  12.7512  12.9173  12.9175  12.9213  13.1109  13.1164  13.2977
    14.6105  14.6190  15.4087  15.4101  15.7887  16.0546  16.2466  16.2591

          k =-0.3333 0.1925 0.0000 ( 10227 PWs)   bands (ev):

   -35.2181 -35.2132 -35.2105 -34.8207 -34.7873 -34.7796 -13.4953 -13.4337
   -13.4239 -13.2951 -13.2442 -13.2436 -13.2201 -13.2153 -13.1739 -13.0695
   -12.9200 -12.8536 -12.7991 -12.7333 -12.7324 -12.7104 -12.7058 -12.6943
     0.7955   1.1603   7.8014   7.9552   8.7902   9.3436   9.9373  10.6991
    10.7524  11.2034  11.2363  11.2913  11.4314  11.5836  11.7014  11.9708
    12.2274  12.6630  12.7129  13.6709  14.0366  14.2903  14.3780  14.5023
    14.6427  14.6757  14.7562  14.9846  15.0085  15.0997  15.3072  15.3853

          k = 0.0000 0.3849-0.5180 ( 10233 PWs)   bands (ev):

   -35.2126 -35.2099 -35.2060 -34.8185 -34.7838 -34.7777 -13.4702 -13.4236
   -13.4076 -13.3468 -13.3348 -13.3074 -13.2407 -13.1973 -13.1753 -13.0345
   -12.9221 -12.8926 -12.8124 -12.7859 -12.7495 -12.7392 -12.7148 -12.7024
     1.1796   1.3520   8.2972   8.4326   8.8159   9.1529   9.2977   9.5558
    10.2579  11.1419  11.3052  11.3254  11.4366  11.4469  12.2023  12.4916
    12.5703  12.6294  12.9069  13.1495  13.2955  13.4720  13.5505  13.7737
    14.2796  14.5485  14.9931  15.1607  15.3765  15.5113  15.7371  15.9749

          k =-0.3333 0.1925 0.5180 ( 10233 PWs)   bands (ev):

   -35.2129 -35.2092 -35.2064 -34.8184 -34.7843 -34.7773 -13.4707 -13.4215
   -13.4090 -13.3470 -13.3348 -13.3078 -13.2405 -13.1968 -13.1757 -13.0343
   -12.9195 -12.8959 -12.8123 -12.7845 -12.7522 -12.7366 -12.7149 -12.7028
     1.1800   1.3516   8.2975   8.4341   8.8149   9.1502   9.2986   9.5580
    10.2579  11.1407  11.3064  11.3260  11.4363  11.4474  12.2001  12.4921
    12.5686  12.6295  12.9020  13.1453  13.2982  13.4756  13.5533  13.7737
    14.2776  14.5480  14.9994  15.1606  15.3749  15.5145  15.7277  15.9792

          k =-0.3333 0.1925-1.0361 ( 10240 PWs)   bands (ev):

   -35.2078 -35.2052 -35.2020 -34.8163 -34.7814 -34.7750 -13.4453 -13.4418
   -13.4285 -13.4092 -13.3882 -13.3709 -13.2218 -13.1619 -13.1042 -13.0865
   -12.9503 -12.9150 -12.8306 -12.8269 -12.7601 -12.7447 -12.7382 -12.7206
     1.5657   1.6543   7.5673   8.2455   8.7513   8.9699   9.3678   9.4631
    10.6238  11.3413  11.3742  11.3931  11.3998  11.6823  12.1144  12.4188
    12.4251  12.5422  12.8572  13.0499  13.0882  13.3523  13.3795  13.4075
    14.3348  14.5891  14.9458  15.0056  15.8373  16.0234  16.3521  16.3677

          k = 0.3333-0.5774-0.5180 ( 10245 PWs)   bands (ev):

   -35.2115 -35.2105 -35.2065 -34.8191 -34.7837 -34.7773 -13.4498 -13.4482
   -13.4050 -13.3346 -13.3340 -13.3262 -13.1985 -13.1979 -13.1973 -13.0643
   -12.9044 -12.9005 -12.8136 -12.7479 -12.7407 -12.7403 -12.7298 -12.7243
     1.2687   1.2697   8.0649   8.5759   8.5760   9.4511   9.4520   9.4566
    10.2477  11.1493  11.3003  11.3028  11.4889  11.4895  12.2213  12.3380
    12.3396  12.9491  13.1573  13.2194  13.2227  13.3018  13.3052  13.9524
    14.4651  14.4701  15.0726  15.0742  15.6195  15.6340  15.7022  15.7102

     the Fermi energy is    13.9813 ev

!    total energy              =    -713.88247455 Ry
     estimated scf accuracy    <          1.4E-09 Ry
     smearing contrib. (-TS)   =      -0.00301482 Ry
     internal energy E=F+TS    =    -713.87945973 Ry

     The total energy is F=E-TS. E is the sum of the following terms:
     one-electron contribution =    -152.77394157 Ry
     hartree contribution      =     124.86808432 Ry
     xc contribution           =    -144.35433254 Ry
     ewald contribution        =    -541.61926993 Ry

     convergence has been achieved in   9 iterations

     negative rho (up, down):  3.710E-01 0.000E+00

     Forces acting on atoms (cartesian axes, Ry/au):

     atom    1 type  1   force =    -0.00078933   -0.00129284   -0.00092178
     atom    2 type  1   force =    -0.00072496   -0.00133000   -0.00092178
     atom    3 type  1   force =     0.00148362    0.00256971   -0.00091692
     atom    4 type  1   force =     0.00247934   -0.00109912    0.00121756
     atom    5 type  1   force =    -0.00219154    0.00159761    0.00121756
     atom    6 type  1   force =    -0.00041032   -0.00071069    0.00121164
     atom    7 type  2   force =    -0.00068241   -0.00118198    0.00124860
     atom    8 type  3   force =    -0.00037573    0.00118180   -0.00106744
     atom    9 type  3   force =     0.00121133    0.00026551   -0.00106744

     Total force =     0.006673     Total SCF correction =     0.000069
     Energy error            =      1.6E-04 Ry
     Gradient error          =      2.6E-03 Ry/Bohr

     number of scf cycles    =   3
     number of bfgs steps    =   2

     energy             old  =    -713.8823161778 Ry
     energy             new  =    -713.8824745491 Ry

     CASE: energy            _new < energy            _old

     new trust radius        =       0.0113562389 bohr
     new conv_thr            =       0.0000000158 Ry


ATOMIC_POSITIONS (angstrom)
Zr               1.8315893901       -0.0069155905       -0.0038851473
Zr              -0.9217837721        1.5827451263       -0.0038851473
Zr               2.9468511717        5.1040961322       -0.0038030410
Zr               4.5781798927       -0.0038631205        1.8612019967
Zr              -2.2924355069        3.9628887589        1.8612019967
Zr               1.5709284048        2.7209277442        1.8612584758
Ni              -0.0032152513       -0.0055689785        1.8623430435
Te              -0.0023037752        4.4601963706       -0.0047280886
Te               3.8637954461        2.2281035575       -0.0047280886



     Writing config-only to output data dir ./tmp/Zr6NiTe2.save/ :
     XML data file
     NEW-OLD atomic charge density approx. for the potential

     Check: negative core charge=   -0.000002

     negative rho (up, down):  3.712E-01 0.000E+00

     total cpu time spent up to now is     1371.2 secs

     Self-consistent Calculation

     iteration #  1     ecut=    60.00 Ry     beta= 0.40
     Davidson diagonalization with overlap
     ethr =  1.00E-06,  avg # of iterations =  4.0

     negative rho (up, down):  3.712E-01 0.000E+00

     total cpu time spent up to now is     1439.7 secs

     total energy              =    -713.88245415 Ry
     estimated scf accuracy    <       0.00021703 Ry

     iteration #  2     ecut=    60.00 Ry     beta= 0.40
     Davidson diagonalization with overlap
     ethr =  2.31E-07,  avg # of iterations =  4.9

     negative rho (up, down):  3.712E-01 0.000E+00

     total cpu time spent up to now is     1483.6 secs

     total energy              =    -713.88237680 Ry
     estimated scf accuracy    <       0.00202769 Ry

     iteration #  3     ecut=    60.00 Ry     beta= 0.40
     Davidson diagonalization with overlap
     ethr =  2.31E-07,  avg # of iterations =  3.9

     negative rho (up, down):  3.712E-01 0.000E+00

     total cpu time spent up to now is     1525.1 secs

     total energy              =    -713.88254315 Ry
     estimated scf accuracy    <       0.00011652 Ry

     iteration #  4     ecut=    60.00 Ry     beta= 0.40
     Davidson diagonalization with overlap
     ethr =  1.24E-07,  avg # of iterations =  2.2

     negative rho (up, down):  3.712E-01 0.000E+00

     total cpu time spent up to now is     1561.7 secs

     total energy              =    -713.88255570 Ry
     estimated scf accuracy    <       0.00001465 Ry

     iteration #  5     ecut=    60.00 Ry     beta= 0.40
     Davidson diagonalization with overlap
     ethr =  1.56E-08,  avg # of iterations =  2.7

     negative rho (up, down):  3.712E-01 0.000E+00

     total cpu time spent up to now is     1598.8 secs

     total energy              =    -713.88255706 Ry
     estimated scf accuracy    <       0.00000420 Ry

     iteration #  6     ecut=    60.00 Ry     beta= 0.40
     Davidson diagonalization with overlap
     ethr =  4.46E-09,  avg # of iterations =  2.8

     negative rho (up, down):  3.712E-01 0.000E+00

     total cpu time spent up to now is     1634.8 secs

     total energy              =    -713.88255747 Ry
     estimated scf accuracy    <       0.00000085 Ry

     iteration #  7     ecut=    60.00 Ry     beta= 0.40
     Davidson diagonalization with overlap
     ethr =  9.04E-10,  avg # of iterations =  3.4

     negative rho (up, down):  3.712E-01 0.000E+00

     total cpu time spent up to now is     1673.4 secs

     total energy              =    -713.88255757 Ry
     estimated scf accuracy    <       0.00000033 Ry

     iteration #  8     ecut=    60.00 Ry     beta= 0.40
     Davidson diagonalization with overlap
     ethr =  3.54E-10,  avg # of iterations =  2.9

     negative rho (up, down):  3.712E-01 0.000E+00

     total cpu time spent up to now is     1710.5 secs

     total energy              =    -713.88255762 Ry
     estimated scf accuracy    <       0.00000007 Ry

     iteration #  9     ecut=    60.00 Ry     beta= 0.40
     Davidson diagonalization with overlap
     ethr =  7.59E-11,  avg # of iterations =  2.9

     negative rho (up, down):  3.712E-01 0.000E+00

     total cpu time spent up to now is     1746.7 secs

     End of self-consistent calculation

          k = 0.0000 0.0000 0.0000 ( 10193 PWs)   bands (ev):

   -35.2208 -35.2123 -35.2115 -34.8155 -34.7831 -34.7803 -13.5217 -13.4065
   -13.4062 -13.2918 -13.2570 -13.2320 -13.2314 -13.2123 -13.2115 -12.9600
   -12.9590 -12.9566 -12.7870 -12.7142 -12.7091 -12.7077 -12.6917 -12.6907
     0.6561   1.3044   8.0065   8.0077   9.2018   9.3295   9.3321  10.5725
    10.6110  11.3334  11.3338  11.4061  11.4066  11.4472  11.4475  11.6669
    11.8238  13.2938  13.2970  14.0573  14.0645  14.0651  14.1186  14.1214
    14.2183  14.7200  14.7219  15.0909  15.0917  15.2065  15.2451  15.7648

          k = 0.0000 0.0000 0.5180 ( 10223 PWs)   bands (ev):

   -35.2146 -35.2087 -35.2079 -34.8145 -34.7799 -34.7771 -13.4852 -13.4040
   -13.4036 -13.3442 -13.3386 -13.3381 -13.2079 -13.1970 -13.1965 -12.9983
   -12.9212 -12.9191 -12.8053 -12.7910 -12.7556 -12.7536 -12.6918 -12.6896
     1.1072   1.4197   8.5479   8.5495   8.9656   9.1925   9.1941   9.4588
     9.9013  11.1367  11.2983  11.2989  11.3701  11.3705  12.2969  12.2982
    12.3379  12.9966  12.9982  13.1688  13.1701  13.3111  13.8124  13.8124
    14.2278  14.6278  14.8073  14.8085  14.9786  15.8461  15.8519  16.3039

          k = 0.0000 0.0000-1.0361 ( 10170 PWs)   bands (ev):

   -35.2084 -35.2050 -35.2042 -34.8135 -34.7767 -34.7738 -13.4461 -13.4322
   -13.4317 -13.4028 -13.4024 -13.3959 -13.1786 -13.1781 -13.1169 -13.0814
   -12.9052 -12.9024 -12.8666 -12.8261 -12.7496 -12.7478 -12.7342 -12.7308
     1.5475   1.6824   7.3765   8.5937   8.7677   8.7680   9.5701   9.5730
    10.7739  11.1300  11.1313  11.3874  11.3880  11.6953  12.1873  12.3343
    12.3405  12.3431  13.1233  13.1286  13.3435  13.3492  13.9062  13.9063
    14.0075  14.0083  14.1062  14.1774  16.1244  16.1277  16.2790  16.4086

          k = 0.0000 0.3849 0.0000 ( 10227 PWs)   bands (ev):

   -35.2184 -35.2136 -35.2125 -34.8180 -34.7818 -34.7793 -13.4949 -13.4352
   -13.4231 -13.2955 -13.2445 -13.2444 -13.2210 -13.2156 -13.1736 -13.0708
   -12.9190 -12.8507 -12.7948 -12.7329 -12.7320 -12.7038 -12.7009 -12.6949
     0.7990   1.1638   7.8019   7.9580   8.7943   9.3488   9.9362  10.6911
    10.7580  11.1972  11.2328  11.2896  11.4246  11.5835  11.7008  11.9700
    12.2261  12.6643  12.7124  13.6737  14.0358  14.2943  14.3833  14.4997
    14.6347  14.6767  14.7565  14.9904  15.0079  15.1002  15.3088  15.3816

          k = 0.0000 0.3849 0.5180 ( 10233 PWs)   bands (ev):

   -35.2131 -35.2094 -35.2086 -34.8157 -34.7792 -34.7766 -13.4702 -13.4231
   -13.4085 -13.3469 -13.3352 -13.3077 -13.2411 -13.1974 -13.1761 -13.0365
   -12.9197 -12.8916 -12.8079 -12.7831 -12.7466 -12.7366 -12.7123 -12.7005
     1.1833   1.3555   8.3002   8.4356   8.8199   9.1558   9.3015   9.5609
    10.2554  11.1335  11.2996  11.3180  11.4313  11.4418  12.2018  12.4911
    12.5680  12.6267  12.9074  13.1511  13.2984  13.4747  13.5510  13.7711
    14.2813  14.5459  14.9948  15.1590  15.3785  15.5120  15.7385  15.9723

          k = 0.0000 0.3849-1.0361 ( 10240 PWs)   bands (ev):

   -35.2078 -35.2052 -35.2047 -34.8134 -34.7768 -34.7739 -13.4447 -13.4419
   -13.4288 -13.4107 -13.3880 -13.3707 -13.2218 -13.1627 -13.1052 -13.0887
   -12.9467 -12.9156 -12.8289 -12.8224 -12.7547 -12.7401 -12.7381 -12.7196
     1.5705   1.6574   7.5717   8.2489   8.7544   8.9712   9.3708   9.4680
    10.6175  11.3387  11.3673  11.3886  11.3918  11.6725  12.1170  12.4140
    12.4281  12.5458  12.8592  13.0541  13.0851  13.3516  13.3790  13.4081
    14.3392  14.5823  14.9421  15.0097  15.8431  16.0262  16.3490  16.3723

          k = 0.3333 0.5774 0.0000 ( 10290 PWs)   bands (ev):

   -35.2160 -35.2150 -35.2135 -34.8191 -34.7815 -34.7786 -13.4653 -13.4652
   -13.4292 -13.2525 -13.2521 -13.2371 -13.2291 -13.2284 -13.2236 -13.0239
   -12.8849 -12.8827 -12.7989 -12.7375 -12.7232 -12.7215 -12.6979 -12.6952
     0.9826   0.9831   7.4531   8.4639   8.4643   9.5848   9.8223  10.7736
    11.0066  11.0084  11.2483  11.2496  11.4724  11.4725  11.8775  11.8819
    12.3871  12.6514  12.6520  13.8316  14.2036  14.2037  14.2052  14.2879
    14.3457  14.3502  14.7938  14.7986  14.8994  15.4676  15.5129  15.7179

          k = 0.3333 0.5774 0.5180 ( 10245 PWs)   bands (ev):

   -35.2115 -35.2105 -35.2090 -34.8162 -34.7791 -34.7762 -13.4492 -13.4491
   -13.4054 -13.3349 -13.3343 -13.3261 -13.1993 -13.1979 -13.1977 -13.0664
   -12.9015 -12.8995 -12.8091 -12.7441 -12.7400 -12.7397 -12.7246 -12.7227
     1.2727   1.2729   8.0670   8.5807   8.5819   9.4540   9.4543   9.4600
    10.2457  11.1405  11.2956  11.2961  11.4831  11.4837  12.2143  12.3362
    12.3393  12.9454  13.1619  13.2217  13.2223  13.3024  13.3032  13.9541
    14.4691  14.4764  15.0663  15.0676  15.6281  15.6359  15.7065  15.7122

          k = 0.3333 0.5774-1.0361 ( 10248 PWs)   bands (ev):

   -35.2071 -35.2061 -35.2045 -34.8134 -34.7768 -34.7739 -13.4297 -13.4295
   -13.4277 -13.4271 -13.3858 -13.3803 -13.2418 -13.1287 -13.1276 -13.0652
   -12.9562 -12.9538 -12.8205 -12.7866 -12.7835 -12.7491 -12.7185 -12.7173
     1.6128   1.6138   7.8771   7.8786   8.8055   9.1890   9.1911   9.3157
    10.5488  11.3582  11.3583  11.4799  11.4808  11.6793  11.8878  12.6852
    12.7493  12.7494  12.9156  12.9188  12.9218  13.1133  13.1139  13.2920
    14.6088  14.6187  15.4099  15.4125  15.7945  16.0599  16.2512  16.2591

          k =-0.3333 0.1925 0.0000 ( 10227 PWs)   bands (ev):

   -35.2183 -35.2140 -35.2122 -34.8179 -34.7826 -34.7785 -13.4949 -13.4353
   -13.4230 -13.2953 -13.2445 -13.2444 -13.2213 -13.2154 -13.1736 -13.0715
   -12.9175 -12.8515 -12.7949 -12.7316 -12.7314 -12.7062 -12.7022 -12.6933
     0.7988   1.1640   7.8023   7.9576   8.7930   9.3499   9.9373  10.6911
    10.7572  11.1980  11.2332  11.2888  11.4250  11.5841  11.6987  11.9696
    12.2257  12.6631  12.7134  13.6723  14.0378  14.2979  14.3833  14.5021
    14.6349  14.6766  14.7565  14.9870  15.0087  15.0976  15.3066  15.3826

          k = 0.0000 0.3849-0.5180 ( 10233 PWs)   bands (ev):

   -35.2131 -35.2094 -35.2086 -34.8157 -34.7792 -34.7766 -13.4702 -13.4231
   -13.4085 -13.3469 -13.3352 -13.3077 -13.2411 -13.1974 -13.1761 -13.0365
   -12.9197 -12.8916 -12.8079 -12.7831 -12.7466 -12.7365 -12.7123 -12.7005
     1.1833   1.3555   8.3002   8.4356   8.8199   9.1557   9.3014   9.5609
    10.2554  11.1335  11.2996  11.3180  11.4313  11.4418  12.2018  12.4911
    12.5680  12.6267  12.9075  13.1511  13.2984  13.4746  13.5510  13.7712
    14.2814  14.5459  14.9949  15.1590  15.3785  15.5120  15.7384  15.9723

          k =-0.3333 0.1925 0.5180 ( 10233 PWs)   bands (ev):

   -35.2129 -35.2099 -35.2083 -34.8156 -34.7797 -34.7762 -13.4702 -13.4234
   -13.4082 -13.3471 -13.3352 -13.3074 -13.2409 -13.1976 -13.1761 -13.0369
   -12.9181 -12.8931 -12.8080 -12.7827 -12.7474 -12.7353 -12.7128 -12.7007
     1.1834   1.3555   8.2997   8.4359   8.8208   9.1550   9.3021   9.5608
    10.2563  11.1336  11.2990  11.3184  11.4318  11.4415  12.1991  12.4921
    12.5666  12.6260  12.9069  13.1479  13.2995  13.4780  13.5508  13.7738
    14.2787  14.5472  14.9954  15.1605  15.3771  15.5141  15.7305  15.9745

          k =-0.3333 0.1925-1.0361 ( 10240 PWs)   bands (ev):

   -35.2076 -35.2058 -35.2043 -34.8134 -34.7767 -34.7739 -13.4447 -13.4421
   -13.4286 -13.4111 -13.3876 -13.3706 -13.2217 -13.1634 -13.1045 -13.0882
   -12.9481 -12.9148 -12.8284 -12.8224 -12.7573 -12.7388 -12.7380 -12.7187
     1.5700   1.6579   7.5710   8.2496   8.7539   8.9726   9.3712   9.4681
    10.6175  11.3388  11.3672  11.3890  11.3914  11.6725  12.1145  12.4165
    12.4278  12.5446  12.8609  13.0520  13.0855  13.3532  13.3775  13.4054
    14.3344  14.5882  14.9428  15.0104  15.8390  16.0250  16.3505  16.3715

          k = 0.3333-0.5774-0.5180 ( 10245 PWs)   bands (ev):

   -35.2115 -35.2105 -35.2090 -34.8162 -34.7791 -34.7762 -13.4492 -13.4491
   -13.4054 -13.3349 -13.3343 -13.3261 -13.1992 -13.1979 -13.1977 -13.0665
   -12.9015 -12.8995 -12.8091 -12.7440 -12.7399 -12.7396 -12.7247 -12.7228
     1.2727   1.2729   8.0670   8.5806   8.5817   9.4543   9.4546   9.4601
    10.2451  11.1409  11.2954  11.2959  11.4830  11.4836  12.2144  12.3364
    12.3395  12.9458  13.1621  13.2215  13.2223  13.3028  13.3037  13.9538
    14.4688  14.4760  15.0676  15.0689  15.6258  15.6351  15.7055  15.7111

     the Fermi energy is    13.9813 ev

!    total energy              =    -713.88255762 Ry
     estimated scf accuracy    <          9.7E-09 Ry
     smearing contrib. (-TS)   =      -0.00297702 Ry
     internal energy E=F+TS    =    -713.87958059 Ry

     The total energy is F=E-TS. E is the sum of the following terms:
     one-electron contribution =    -153.30291026 Ry
     hartree contribution      =     125.13428680 Ry
     xc contribution           =    -144.35527362 Ry
     ewald contribution        =    -541.35568352 Ry

     convergence has been achieved in   9 iterations

     negative rho (up, down):  3.712E-01 0.000E+00

     Forces acting on atoms (cartesian axes, Ry/au):

     atom    1 type  1   force =     0.00041623    0.00045463   -0.00012559
     atom    2 type  1   force =     0.00018561    0.00058778   -0.00012559
     atom    3 type  1   force =    -0.00030295   -0.00052472   -0.00014227
     atom    4 type  1   force =     0.00132998   -0.00038828    0.00016147
     atom    5 type  1   force =    -0.00100125    0.00095765    0.00016147
     atom    6 type  1   force =    -0.00025664   -0.00044451    0.00015033
     atom    7 type  2   force =    -0.00016253   -0.00028152    0.00000964
     atom    8 type  3   force =     0.00011898   -0.00030939   -0.00004474
     atom    9 type  3   force =    -0.00032743   -0.00005165   -0.00004474

     Total force =     0.002384     Total SCF correction =     0.000322
     SCF correction compared to forces is large: reduce conv_thr to get better values
     Energy error            =      8.3E-05 Ry
     Gradient error          =      1.3E-03 Ry/Bohr

     number of scf cycles    =   4
     number of bfgs steps    =   3

     energy             old  =    -713.8824745491 Ry
     energy             new  =    -713.8825576163 Ry

     CASE: energy            _new < energy            _old

     new trust radius        =       0.0023183733 bohr
     new conv_thr            =       0.0000000100 Ry


ATOMIC_POSITIONS (angstrom)
Zr               1.8316647393       -0.0069172353       -0.0041135041
Zr              -0.9218228711        1.5828095583       -0.0041135041
Zr               2.9469696908        5.1043014133       -0.0040382968
Zr               4.5793069149       -0.0042489355        1.8614953913
Zr              -2.2933331436        3.9636718813        1.8614953913
Zr               1.5707197293        2.7205663076        1.8615469565
Ni              -0.0034354366       -0.0059503507        1.8625866419
Te              -0.0023211404        4.4602580184       -0.0049415379
Te               3.8638575173        2.2281193427       -0.0049415379



     Writing config-only to output data dir ./tmp/Zr6NiTe2.save/ :
     XML data file
     NEW-OLD atomic charge density approx. for the potential

     Check: negative core charge=   -0.000002

     negative rho (up, down):  3.712E-01 0.000E+00

     total cpu time spent up to now is     1757.0 secs

     Self-consistent Calculation

     iteration #  1     ecut=    60.00 Ry     beta= 0.40
     Davidson diagonalization with overlap
     ethr =  1.00E-06,  avg # of iterations =  2.8

     Threshold (ethr) on eigenvalues was too large:
     Diagonalizing with lowered threshold

     Davidson diagonalization with overlap
     ethr =  4.37E-09,  avg # of iterations =  4.1

     negative rho (up, down):  3.712E-01 0.000E+00

     total cpu time spent up to now is     1852.6 secs

     total energy              =    -713.88256148 Ry
     estimated scf accuracy    <       0.00000501 Ry

     iteration #  2     ecut=    60.00 Ry     beta= 0.40
     Davidson diagonalization with overlap
     ethr =  5.33E-09,  avg # of iterations =  4.8

     negative rho (up, down):  3.712E-01 0.000E+00

     total cpu time spent up to now is     1896.9 secs

     total energy              =    -713.88255971 Ry
     estimated scf accuracy    <       0.00004754 Ry

     iteration #  3     ecut=    60.00 Ry     beta= 0.40
     Davidson diagonalization with overlap
     ethr =  5.33E-09,  avg # of iterations =  4.1

     negative rho (up, down):  3.712E-01 0.000E+00

     total cpu time spent up to now is     1937.9 secs

     total energy              =    -713.88256342 Ry
     estimated scf accuracy    <       0.00000306 Ry

     iteration #  4     ecut=    60.00 Ry     beta= 0.40
     Davidson diagonalization with overlap
     ethr =  3.26E-09,  avg # of iterations =  2.1

     negative rho (up, down):  3.712E-01 0.000E+00

     total cpu time spent up to now is     1974.2 secs

     total energy              =    -713.88256374 Ry
     estimated scf accuracy    <       0.00000016 Ry

     iteration #  5     ecut=    60.00 Ry     beta= 0.40
     Davidson diagonalization with overlap
     ethr =  1.73E-10,  avg # of iterations =  4.1

     negative rho (up, down):  3.712E-01 0.000E+00

     total cpu time spent up to now is     2015.6 secs

     total energy              =    -713.88256377 Ry
     estimated scf accuracy    <       0.00000012 Ry

     iteration #  6     ecut=    60.00 Ry     beta= 0.40
     Davidson diagonalization with overlap
     ethr =  1.24E-10,  avg # of iterations =  2.4

     negative rho (up, down):  3.712E-01 0.000E+00

     total cpu time spent up to now is     2051.7 secs

     total energy              =    -713.88256377 Ry
     estimated scf accuracy    <       0.00000002 Ry

     iteration #  7     ecut=    60.00 Ry     beta= 0.40
     Davidson diagonalization with overlap
     ethr =  2.44E-11,  avg # of iterations =  3.6

     negative rho (up, down):  3.712E-01 0.000E+00

     total cpu time spent up to now is     2091.0 secs

     total energy              =    -713.88256378 Ry
     estimated scf accuracy    <       0.00000002 Ry

     iteration #  8     ecut=    60.00 Ry     beta= 0.40
     Davidson diagonalization with overlap
     ethr =  1.77E-11,  avg # of iterations =  2.5

     negative rho (up, down):  3.712E-01 0.000E+00

     total cpu time spent up to now is     2127.2 secs

     End of self-consistent calculation

          k = 0.0000 0.0000 0.0000 ( 10193 PWs)   bands (ev):

   -35.2210 -35.2125 -35.2117 -34.8149 -34.7823 -34.7801 -13.5218 -13.4067
   -13.4064 -13.2916 -13.2571 -13.2321 -13.2315 -13.2124 -13.2116 -12.9593
   -12.9585 -12.9566 -12.7864 -12.7133 -12.7088 -12.7075 -12.6912 -12.6905
     0.6567   1.3045   8.0073   8.0082   9.2018   9.3295   9.3318  10.5737
    10.6112  11.3330  11.3336  11.4061  11.4065  11.4471  11.4472  11.6670
    11.8236  13.2940  13.2970  14.0576  14.0649  14.0657  14.1190  14.1221
    14.2188  14.7194  14.7207  15.0901  15.0906  15.2076  15.2439  15.7651

          k = 0.0000 0.0000 0.5180 ( 10223 PWs)   bands (ev):

   -35.2148 -35.2089 -35.2081 -34.8139 -34.7790 -34.7769 -13.4853 -13.4042
   -13.4038 -13.3440 -13.3386 -13.3382 -13.2079 -13.1971 -13.1966 -12.9984
   -12.9204 -12.9187 -12.8047 -12.7904 -12.7549 -12.7534 -12.6913 -12.6895
     1.1076   1.4201   8.5483   8.5497   8.9661   9.1930   9.1944   9.4593
     9.9014  11.1368  11.2982  11.2989  11.3697  11.3703  12.2967  12.2981
    12.3376  12.9976  12.9987  13.1689  13.1697  13.3115  13.8123  13.8123
    14.2289  14.6260  14.8066  14.8077  14.9789  15.8461  15.8515  16.3053

          k = 0.0000 0.0000-1.0361 ( 10170 PWs)   bands (ev):

   -35.2086 -35.2052 -35.2044 -34.8129 -34.7758 -34.7737 -13.4461 -13.4323
   -13.4319 -13.4030 -13.4026 -13.3957 -13.1786 -13.1782 -13.1173 -13.0812
   -12.9043 -12.9021 -12.8660 -12.8255 -12.7488 -12.7477 -12.7336 -12.7308
     1.5482   1.6827   7.3773   8.5937   8.7678   8.7681   9.5707   9.5733
    10.7734  11.1298  11.1313  11.3871  11.3883  11.6953  12.1867  12.3352
    12.3411  12.3431  13.1231  13.1274  13.3449  13.3493  13.9057  13.9063
    14.0079  14.0081  14.1083  14.1756  16.1244  16.1274  16.2771  16.4080

          k = 0.0000 0.3849 0.0000 ( 10227 PWs)   bands (ev):

   -35.2186 -35.2138 -35.2127 -34.8174 -34.7810 -34.7791 -13.4950 -13.4353
   -13.4233 -13.2953 -13.2445 -13.2445 -13.2211 -13.2157 -13.1737 -13.0706
   -12.9184 -12.8504 -12.7942 -12.7324 -12.7315 -12.7035 -12.7007 -12.6944
     0.7995   1.1640   7.8022   7.9582   8.7946   9.3490   9.9362  10.6912
    10.7591  11.1969  11.2329  11.2891  11.4246  11.5840  11.7009  11.9700
    12.2259  12.6641  12.7125  13.6741  14.0358  14.2949  14.3838  14.5000
    14.6339  14.6766  14.7562  14.9900  15.0084  15.0994  15.3086  15.3822

          k = 0.0000 0.3849 0.5180 ( 10233 PWs)   bands (ev):

   -35.2132 -35.2096 -35.2088 -34.8151 -34.7784 -34.7765 -13.4703 -13.4232
   -13.4087 -13.3469 -13.3353 -13.3078 -13.2410 -13.1974 -13.1763 -13.0364
   -12.9190 -12.8912 -12.8073 -12.7826 -12.7462 -12.7360 -12.7119 -12.7002
     1.1837   1.3559   8.3005   8.4358   8.8206   9.1560   9.3020   9.5614
    10.2552  11.1334  11.2996  11.3179  11.4309  11.4415  12.2017  12.4912
    12.5677  12.6264  12.9075  13.1512  13.2989  13.4751  13.5510  13.7715
    14.2813  14.5454  14.9945  15.1582  15.3788  15.5121  15.7383  15.9718

          k = 0.0000 0.3849-1.0361 ( 10240 PWs)   bands (ev):

   -35.2079 -35.2054 -35.2048 -34.8128 -34.7759 -34.7737 -13.4448 -13.4419
   -13.4289 -13.4109 -13.3881 -13.3706 -13.2219 -13.1627 -13.1054 -13.0883
   -12.9461 -12.9149 -12.8283 -12.8218 -12.7545 -12.7396 -12.7378 -12.7191
     1.5710   1.6578   7.5723   8.2492   8.7546   8.9717   9.3712   9.4685
    10.6170  11.3383  11.3671  11.3882  11.3918  11.6726  12.1166  12.4149
    12.4285  12.5462  12.8591  13.0544  13.0848  13.3518  13.3790  13.4082
    14.3386  14.5826  14.9405  15.0107  15.8422  16.0266  16.3481  16.3723

          k = 0.3333 0.5774 0.0000 ( 10290 PWs)   bands (ev):

   -35.2161 -35.2152 -35.2137 -34.8185 -34.7806 -34.7784 -13.4654 -13.4653
   -13.4295 -13.2525 -13.2522 -13.2368 -13.2292 -13.2285 -13.2237 -13.0240
   -12.8841 -12.8824 -12.7983 -12.7370 -12.7226 -12.7214 -12.6972 -12.6951
     0.9830   0.9834   7.4532   8.4640   8.4645   9.5854   9.8223  10.7735
    11.0073  11.0091  11.2483  11.2491  11.4727  11.4727  11.8776  11.8817
    12.3859  12.6516  12.6526  13.8323  14.2033  14.2037  14.2059  14.2869
    14.3457  14.3495  14.7943  14.7988  14.8994  15.4672  15.5136  15.7181

          k = 0.3333 0.5774 0.5180 ( 10245 PWs)   bands (ev):

   -35.2117 -35.2107 -35.2092 -34.8156 -34.7782 -34.7761 -13.4493 -13.4492
   -13.4055 -13.3349 -13.3344 -13.3260 -13.1992 -13.1980 -13.1978 -13.0663
   -12.9007 -12.8992 -12.8086 -12.7431 -12.7398 -12.7395 -12.7240 -12.7226
     1.2731   1.2733   8.0671   8.5812   8.5822   9.4545   9.4548   9.4606
    10.2455  11.1404  11.2952  11.2960  11.4828  11.4834  12.2137  12.3365
    12.3395  12.9458  13.1625  13.2216  13.2220  13.3030  13.3039  13.9537
    14.4694  14.4760  15.0652  15.0666  15.6264  15.6365  15.7069  15.7119

          k = 0.3333 0.5774-1.0361 ( 10248 PWs)   bands (ev):

   -35.2072 -35.2062 -35.2047 -34.8128 -34.7759 -34.7738 -13.4298 -13.4297
   -13.4278 -13.4272 -13.3857 -13.3805 -13.2419 -13.1287 -13.1278 -13.0650
   -12.9554 -12.9533 -12.8200 -12.7858 -12.7834 -12.7488 -12.7179 -12.7171
     1.6133   1.6142   7.8776   7.8789   8.8057   9.1896   9.1913   9.3164
    10.5482  11.3578  11.3583  11.4794  11.4807  11.6792  11.8879  12.6858
    12.7494  12.7497  12.9151  12.9195  12.9217  13.1133  13.1147  13.2918
    14.6094  14.6178  15.4091  15.4115  15.7945  16.0612  16.2516  16.2581

          k =-0.3333 0.1925 0.0000 ( 10227 PWs)   bands (ev):

   -35.2185 -35.2142 -35.2124 -34.8173 -34.7817 -34.7784 -13.4950 -13.4355
   -13.4232 -13.2952 -13.2446 -13.2445 -13.2214 -13.2154 -13.1736 -13.0713
   -12.9171 -12.8510 -12.7942 -12.7315 -12.7310 -12.7053 -12.7017 -12.6931
     0.7993   1.1642   7.8025   7.9579   8.7935   9.3501   9.9372  10.6912
    10.7583  11.1973  11.2333  11.2887  11.4250  11.5844  11.6989  11.9696
    12.2255  12.6631  12.7131  13.6731  14.0376  14.2987  14.3839  14.5017
    14.6339  14.6763  14.7563  14.9874  15.0088  15.0973  15.3070  15.3825

          k = 0.0000 0.3849-0.5180 ( 10233 PWs)   bands (ev):

   -35.2132 -35.2096 -35.2088 -34.8151 -34.7784 -34.7765 -13.4703 -13.4232
   -13.4087 -13.3469 -13.3353 -13.3078 -13.2410 -13.1974 -13.1763 -13.0364
   -12.9190 -12.8912 -12.8073 -12.7826 -12.7462 -12.7360 -12.7120 -12.7002
     1.1837   1.3559   8.3005   8.4358   8.8206   9.1560   9.3020   9.5614
    10.2552  11.1335  11.2996  11.3179  11.4309  11.4415  12.2017  12.4912
    12.5677  12.6264  12.9075  13.1512  13.2989  13.4751  13.5510  13.7715
    14.2814  14.5453  14.9945  15.1582  15.3788  15.5120  15.7383  15.9718

          k =-0.3333 0.1925 0.5180 ( 10233 PWs)   bands (ev):

   -35.2131 -35.2101 -35.2084 -34.8151 -34.7788 -34.7761 -13.4703 -13.4235
   -13.4084 -13.3470 -13.3353 -13.3075 -13.2408 -13.1977 -13.1762 -13.0368
   -12.9177 -12.8923 -12.8074 -12.7823 -12.7467 -12.7351 -12.7124 -12.7004
     1.1838   1.3559   8.3001   8.4361   8.8214   9.1555   9.3025   9.5611
    10.2560  11.1337  11.2988  11.3181  11.4314  11.4412  12.1993  12.4921
    12.5664  12.6258  12.9072  13.1486  13.2998  13.4779  13.5505  13.7742
    14.2791  14.5468  14.9945  15.1595  15.3775  15.5138  15.7315  15.9736

          k =-0.3333 0.1925-1.0361 ( 10240 PWs)   bands (ev):

   -35.2077 -35.2060 -35.2044 -34.8128 -34.7758 -34.7738 -13.4448 -13.4421
   -13.4287 -13.4112 -13.3878 -13.3706 -13.2218 -13.1634 -13.1048 -13.0879
   -12.9474 -12.9144 -12.8280 -12.8218 -12.7565 -12.7381 -12.7380 -12.7185
     1.5706   1.6582   7.5718   8.2498   8.7542   8.9728   9.3715   9.4686
    10.6170  11.3391  11.3669  11.3888  11.3910  11.6724  12.1141  12.4168
    12.4282  12.5452  12.8607  13.0529  13.0849  13.3534  13.3777  13.4057
    14.3350  14.5873  14.9410  15.0113  15.8387  16.0255  16.3498  16.3715

          k = 0.3333-0.5774-0.5180 ( 10245 PWs)   bands (ev):

   -35.2117 -35.2107 -35.2092 -34.8156 -34.7782 -34.7761 -13.4493 -13.4492
   -13.4055 -13.3349 -13.3344 -13.3260 -13.1992 -13.1980 -13.1978 -13.0663
   -12.9008 -12.8992 -12.8086 -12.7431 -12.7397 -12.7395 -12.7240 -12.7226
     1.2731   1.2733   8.0672   8.5813   8.5824   9.4545   9.4547   9.4606
    10.2451  11.1408  11.2953  11.2960  11.4827  11.4833  12.2136  12.3365
    12.3395  12.9456  13.1625  13.2217  13.2222  13.3028  13.3038  13.9543
    14.4700  14.4766  15.0660  15.0673  15.6255  15.6360  15.7059  15.7108

     the Fermi energy is    13.9815 ev

!    total energy              =    -713.88256378 Ry
     estimated scf accuracy    <          2.2E-09 Ry
     smearing contrib. (-TS)   =      -0.00297554 Ry
     internal energy E=F+TS    =    -713.87958823 Ry

     The total energy is F=E-TS. E is the sum of the following terms:
     one-electron contribution =    -153.35414754 Ry
     hartree contribution      =     125.16073652 Ry
     xc contribution           =    -144.35535315 Ry
     ewald contribution        =    -541.33082405 Ry

     convergence has been achieved in   8 iterations

     negative rho (up, down):  3.712E-01 0.000E+00

     Forces acting on atoms (cartesian axes, Ry/au):

     atom    1 type  1   force =     0.00039662    0.00046104   -0.00003380
     atom    2 type  1   force =     0.00020096    0.00057400   -0.00003380
     atom    3 type  1   force =    -0.00037450   -0.00064866   -0.00004767
     atom    4 type  1   force =     0.00107811   -0.00027661    0.00003182
     atom    5 type  1   force =    -0.00077860    0.00079537    0.00003182
     atom    6 type  1   force =    -0.00021007   -0.00036385    0.00001774
     atom    7 type  2   force =    -0.00005076   -0.00008792   -0.00011551
     atom    8 type  3   force =     0.00007364   -0.00034476    0.00007470
     atom    9 type  3   force =    -0.00033539   -0.00010861    0.00007470

     Total force =     0.002060     Total SCF correction =     0.000095
     Energy error            =      6.2E-06 Ry
     Gradient error          =      1.1E-03 Ry/Bohr

     number of scf cycles    =   5
     number of bfgs steps    =   4

     energy             old  =    -713.8825576163 Ry
     energy             new  =    -713.8825637770 Ry

     CASE: energy            _new < energy            _old

     new trust radius        =       0.0025502107 bohr
     new conv_thr            =       0.0000000100 Ry


ATOMIC_POSITIONS (angstrom)
Zr               1.8318866769       -0.0067234984       -0.0042837187
Zr              -0.9217660589        1.5830986303       -0.0042837187
Zr               2.9468867459        5.1041577485       -0.0042188658
Zr               4.5805810857       -0.0046401028        1.8617067285
Zr              -2.2943089898        3.9645797619        1.8617067285
Zr               1.5704796764        2.7201505238        1.8617481582
Ni              -0.0036016759       -0.0062382857        1.8626950278
Te              -0.0023165427        4.4601539383       -0.0050471698
Te               3.8637650824        2.2280712843       -0.0050471698



     Writing config-only to output data dir ./tmp/Zr6NiTe2.save/ :
     XML data file
     NEW-OLD atomic charge density approx. for the potential

     Check: negative core charge=   -0.000002

     negative rho (up, down):  3.712E-01 0.000E+00

     total cpu time spent up to now is     2137.5 secs

     Self-consistent Calculation

     iteration #  1     ecut=    60.00 Ry     beta= 0.40
     Davidson diagonalization with overlap
     ethr =  1.00E-06,  avg # of iterations =  3.0

     Threshold (ethr) on eigenvalues was too large:
     Diagonalizing with lowered threshold

     Davidson diagonalization with overlap
     ethr =  2.94E-09,  avg # of iterations =  4.6

     negative rho (up, down):  3.712E-01 0.000E+00

     total cpu time spent up to now is     2235.2 secs

     total energy              =    -713.88256844 Ry
     estimated scf accuracy    <       0.00000307 Ry

     iteration #  2     ecut=    60.00 Ry     beta= 0.40
     Davidson diagonalization with overlap
     ethr =  3.27E-09,  avg # of iterations =  5.0

     negative rho (up, down):  3.712E-01 0.000E+00

     total cpu time spent up to now is     2279.1 secs

     total energy              =    -713.88256798 Ry
     estimated scf accuracy    <       0.00001777 Ry

     iteration #  3     ecut=    60.00 Ry     beta= 0.40
     Davidson diagonalization with overlap
     ethr =  3.27E-09,  avg # of iterations =  4.3

     negative rho (up, down):  3.712E-01 0.000E+00

     total cpu time spent up to now is     2319.9 secs

     total energy              =    -713.88256961 Ry
     estimated scf accuracy    <       0.00000080 Ry

     iteration #  4     ecut=    60.00 Ry     beta= 0.40
     Davidson diagonalization with overlap
     ethr =  8.55E-10,  avg # of iterations =  2.5

     negative rho (up, down):  3.712E-01 0.000E+00

     total cpu time spent up to now is     2356.9 secs

     total energy              =    -713.88256969 Ry
     estimated scf accuracy    <       0.00000047 Ry

     iteration #  5     ecut=    60.00 Ry     beta= 0.40
     Davidson diagonalization with overlap
     ethr =  5.00E-10,  avg # of iterations =  2.3

     negative rho (up, down):  3.712E-01 0.000E+00

     total cpu time spent up to now is     2393.7 secs

     total energy              =    -713.88256973 Ry
     estimated scf accuracy    <       0.00000014 Ry

     iteration #  6     ecut=    60.00 Ry     beta= 0.40
     Davidson diagonalization with overlap
     ethr =  1.46E-10,  avg # of iterations =  2.1

     negative rho (up, down):  3.712E-01 0.000E+00

     total cpu time spent up to now is     2428.6 secs

     total energy              =    -713.88256974 Ry
     estimated scf accuracy    <       0.00000002 Ry

     iteration #  7     ecut=    60.00 Ry     beta= 0.40
     Davidson diagonalization with overlap
     ethr =  1.92E-11,  avg # of iterations =  3.6

     negative rho (up, down):  3.712E-01 0.000E+00

     total cpu time spent up to now is     2467.2 secs

     End of self-consistent calculation

          k = 0.0000 0.0000 0.0000 ( 10193 PWs)   bands (ev):

   -35.2210 -35.2125 -35.2118 -34.8145 -34.7816 -34.7801 -13.5218 -13.4067
   -13.4065 -13.2913 -13.2571 -13.2321 -13.2317 -13.2122 -13.2116 -12.9585
   -12.9580 -12.9564 -12.7860 -12.7126 -12.7085 -12.7075 -12.6910 -12.6905
     0.6571   1.3046   8.0079   8.0089   9.2020   9.3291   9.3313  10.5749
    10.6121  11.3330  11.3336  11.4068  11.4070  11.4467  11.4470  11.6670
    11.8236  13.2942  13.2966  14.0582  14.0654  14.0662  14.1196  14.1227
    14.2198  14.7185  14.7196  15.0891  15.0895  15.2086  15.2427  15.7655

          k = 0.0000 0.0000 0.5180 ( 10223 PWs)   bands (ev):

   -35.2148 -35.2088 -35.2082 -34.8134 -34.7784 -34.7768 -13.4853 -13.4042
   -13.4040 -13.3438 -13.3385 -13.3382 -13.2078 -13.1970 -13.1966 -12.9983
   -12.9196 -12.9182 -12.8043 -12.7899 -12.7544 -12.7534 -12.6909 -12.6896
     1.1079   1.4204   8.5486   8.5498   8.9666   9.1931   9.1946   9.4597
     9.9016  11.1377  11.2987  11.2993  11.3697  11.3703  12.2965  12.2977
    12.3374  12.9986  12.9992  13.1689  13.1694  13.3127  13.8122  13.8123
    14.2300  14.6239  14.8055  14.8065  14.9793  15.8465  15.8508  16.3064

          k = 0.0000 0.0000-1.0361 ( 10170 PWs)   bands (ev):

   -35.2086 -35.2051 -35.2046 -34.8125 -34.7752 -34.7736 -13.4461 -13.4322
   -13.4319 -13.4031 -13.4028 -13.3954 -13.1785 -13.1782 -13.1176 -13.0809
   -12.9035 -12.9018 -12.8654 -12.8253 -12.7485 -12.7477 -12.7330 -12.7309
     1.5489   1.6827   7.3782   8.5935   8.7677   8.7682   9.5711   9.5735
    10.7733  11.1300  11.1315  11.3875  11.3889  11.6963  12.1861  12.3367
    12.3419  12.3431  13.1225  13.1259  13.3465  13.3495  13.9051  13.9062
    14.0081  14.0083  14.1106  14.1734  16.1244  16.1268  16.2751  16.4075

          k = 0.0000 0.3849 0.0000 ( 10227 PWs)   bands (ev):

   -35.2186 -35.2138 -35.2128 -34.8169 -34.7804 -34.7790 -13.4950 -13.4354
   -13.4234 -13.2951 -13.2445 -13.2444 -13.2211 -13.2156 -13.1737 -13.0702
   -12.9178 -12.8500 -12.7938 -12.7322 -12.7310 -12.7033 -12.7007 -12.6941
     0.7998   1.1642   7.8023   7.9584   8.7948   9.3491   9.9362  10.6920
    10.7602  11.1967  11.2333  11.2889  11.4253  11.5847  11.7010  11.9700
    12.2258  12.6638  12.7125  13.6748  14.0358  14.2956  14.3843  14.5002
    14.6331  14.6764  14.7558  14.9894  15.0088  15.0988  15.3085  15.3828

          k = 0.0000 0.3849 0.5180 ( 10233 PWs)   bands (ev):

   -35.2132 -35.2097 -35.2089 -34.8146 -34.7778 -34.7764 -13.4703 -13.4233
   -13.4088 -13.3468 -13.3353 -13.3076 -13.2408 -13.1974 -13.1763 -13.0362
   -12.9183 -12.8908 -12.8069 -12.7822 -12.7460 -12.7357 -12.7118 -12.7001
     1.1840   1.3562   8.3006   8.4359   8.8213   9.1562   9.3025   9.5617
    10.2552  11.1342  11.3000  11.3184  11.4310  11.4416  12.2018  12.4914
    12.5674  12.6263  12.9075  13.1513  13.2994  13.4755  13.5511  13.7722
    14.2812  14.5449  14.9939  15.1572  15.3791  15.5121  15.7381  15.9714

          k = 0.0000 0.3849-1.0361 ( 10240 PWs)   bands (ev):

   -35.2079 -35.2055 -35.2049 -34.8124 -34.7753 -34.7737 -13.4448 -13.4418
   -13.4289 -13.4110 -13.3882 -13.3705 -13.2220 -13.1628 -13.1055 -13.0879
   -12.9456 -12.9143 -12.8278 -12.8215 -12.7543 -12.7393 -12.7376 -12.7188
     1.5715   1.6580   7.5729   8.2493   8.7546   8.9721   9.3714   9.4689
    10.6167  11.3386  11.3674  11.3883  11.3922  11.6734  12.1161  12.4163
    12.4289  12.5465  12.8589  13.0546  13.0844  13.3522  13.3790  13.4083
    14.3380  14.5830  14.9384  15.0116  15.8409  16.0271  16.3474  16.3719

          k = 0.3333 0.5774 0.0000 ( 10290 PWs)   bands (ev):

   -35.2160 -35.2153 -35.2138 -34.8181 -34.7800 -34.7784 -13.4654 -13.4654
   -13.4296 -13.2524 -13.2523 -13.2363 -13.2290 -13.2285 -13.2238 -13.0240
   -12.8834 -12.8821 -12.7979 -12.7366 -12.7224 -12.7215 -12.6967 -12.6950
     0.9834   0.9836   7.4533   8.4640   8.4645   9.5858   9.8225  10.7742
    11.0083  11.0097  11.2485  11.2488  11.4734  11.4734  11.8781  11.8815
    12.3847  12.6521  12.6530  13.8334  14.2030  14.2034  14.2064  14.2856
    14.3456  14.3486  14.7949  14.7987  14.8994  15.4671  15.5150  15.7183

          k = 0.3333 0.5774 0.5180 ( 10245 PWs)   bands (ev):

   -35.2116 -35.2108 -35.2093 -34.8152 -34.7776 -34.7760 -13.4493 -13.4493
   -13.4057 -13.3349 -13.3344 -13.3258 -13.1990 -13.1980 -13.1978 -13.0660
   -12.9000 -12.8988 -12.8082 -12.7423 -12.7397 -12.7395 -12.7237 -12.7226
     1.2734   1.2736   8.0672   8.5817   8.5825   9.4550   9.4551   9.4611
    10.2454  11.1410  11.2956  11.2963  11.4829  11.4835  12.2133  12.3370
    12.3396  12.9462  13.1629  13.2214  13.2218  13.3036  13.3042  13.9536
    14.4702  14.4757  15.0638  15.0650  15.6245  15.6375  15.7073  15.7114

          k = 0.3333 0.5774-1.0361 ( 10248 PWs)   bands (ev):

   -35.2071 -35.2064 -35.2048 -34.8123 -34.7753 -34.7737 -13.4298 -13.4298
   -13.4277 -13.4273 -13.3855 -13.3805 -13.2419 -13.1287 -13.1279 -13.0646
   -12.9546 -12.9529 -12.8197 -12.7852 -12.7834 -12.7484 -12.7176 -12.7170
     1.6137   1.6144   7.8782   7.8791   8.8058   9.1900   9.1914   9.3171
    10.5479  11.3578  11.3588  11.4795  11.4808  11.6799  11.8881  12.6861
    12.7496  12.7500  12.9145  12.9203  12.9215  13.1136  13.1154  13.2919
    14.6102  14.6166  15.4079  15.4098  15.7939  16.0627  16.2519  16.2566

          k =-0.3333 0.1925 0.0000 ( 10227 PWs)   bands (ev):

   -35.2185 -35.2142 -35.2125 -34.8169 -34.7811 -34.7783 -13.4950 -13.4355
   -13.4233 -13.2950 -13.2446 -13.2444 -13.2213 -13.2154 -13.1736 -13.0708
   -12.9167 -12.8504 -12.7938 -12.7316 -12.7306 -12.7047 -12.7015 -12.6930
     0.7998   1.1643   7.8027   7.9582   8.7940   9.3498   9.9369  10.6920
    10.7596  11.1968  11.2337  11.2888  11.4255  11.5849  11.6993  11.9698
    12.2254  12.6632  12.7128  13.6740  14.0372  14.2992  14.3843  14.5012
    14.6331  14.6759  14.7561  14.9877  15.0091  15.0969  15.3074  15.3826

          k = 0.0000 0.3849-0.5180 ( 10233 PWs)   bands (ev):

   -35.2132 -35.2097 -35.2089 -34.8146 -34.7778 -34.7764 -13.4703 -13.4233
   -13.4088 -13.3468 -13.3353 -13.3076 -13.2408 -13.1974 -13.1763 -13.0362
   -12.9183 -12.8908 -12.8069 -12.7822 -12.7460 -12.7357 -12.7118 -12.7001
     1.1840   1.3562   8.3006   8.4359   8.8213   9.1562   9.3025   9.5617
    10.2552  11.1342  11.3000  11.3184  11.4310  11.4416  12.2018  12.4914
    12.5674  12.6263  12.9075  13.1513  13.2994  13.4755  13.5511  13.7722
    14.2812  14.5448  14.9939  15.1573  15.3791  15.5121  15.7380  15.9714

          k =-0.3333 0.1925 0.5180 ( 10233 PWs)   bands (ev):

   -35.2131 -35.2101 -35.2086 -34.8146 -34.7782 -34.7760 -13.4703 -13.4235
   -13.4086 -13.3469 -13.3353 -13.3074 -13.2406 -13.1977 -13.1763 -13.0365
   -12.9173 -12.8917 -12.8070 -12.7820 -12.7463 -12.7349 -12.7122 -12.7002
     1.1841   1.3561   8.3004   8.4361   8.8219   9.1558   9.3028   9.5614
    10.2558  11.1345  11.2994  11.3185  11.4314  11.4413  12.1997  12.4921
    12.5662  12.6259  12.9074  13.1494  13.3001  13.4777  13.5504  13.7747
    14.2795  14.5462  14.9936  15.1583  15.3781  15.5134  15.7328  15.9728

          k =-0.3333 0.1925-1.0361 ( 10240 PWs)   bands (ev):

   -35.2077 -35.2060 -35.2046 -34.8124 -34.7752 -34.7737 -13.4448 -13.4420
   -13.4287 -13.4112 -13.3880 -13.3704 -13.2219 -13.1633 -13.1050 -13.0875
   -12.9466 -12.9139 -12.8276 -12.8215 -12.7559 -12.7380 -12.7378 -12.7184
     1.5712   1.6583   7.5725   8.2497   8.7545   8.9729   9.3716   9.4688
    10.6167  11.3397  11.3671  11.3889  11.3913  11.6732  12.1137  12.4175
    12.4286  12.5458  12.8601  13.0539  13.0844  13.3538  13.3781  13.4063
    14.3358  14.5862  14.9387  15.0121  15.8381  16.0260  16.3489  16.3711

          k = 0.3333-0.5774-0.5180 ( 10245 PWs)   bands (ev):

   -35.2116 -35.2108 -35.2093 -34.8152 -34.7776 -34.7760 -13.4493 -13.4493
   -13.4057 -13.3349 -13.3344 -13.3258 -13.1990 -13.1980 -13.1978 -13.0660
   -12.9000 -12.8988 -12.8082 -12.7423 -12.7397 -12.7395 -12.7237 -12.7226
     1.2734   1.2736   8.0673   8.5819   8.5828   9.4547   9.4548   9.4611
    10.2451  11.1413  11.2958  11.2965  11.4827  11.4833  12.2130  12.3369
    12.3395  12.9456  13.1628  13.2217  13.2222  13.3031  13.3037  13.9547
    14.4714  14.4768  15.0642  15.0654  15.6245  15.6372  15.7064  15.7104

     the Fermi energy is    13.9817 ev

!    total energy              =    -713.88256974 Ry
     estimated scf accuracy    <          9.1E-09 Ry
     smearing contrib. (-TS)   =      -0.00297625 Ry
     internal energy E=F+TS    =    -713.87959348 Ry

     The total energy is F=E-TS. E is the sum of the following terms:
     one-electron contribution =    -153.38310719 Ry
     hartree contribution      =     125.17593664 Ry
     xc contribution           =    -144.35524732 Ry
     ewald contribution        =    -541.31717562 Ry

     convergence has been achieved in   7 iterations

     negative rho (up, down):  3.712E-01 0.000E+00

     Forces acting on atoms (cartesian axes, Ry/au):

     atom    1 type  1   force =     0.00026422    0.00033870    0.00003482
     atom    2 type  1   force =     0.00016121    0.00039817    0.00003482
     atom    3 type  1   force =    -0.00034508   -0.00059770    0.00002370
     atom    4 type  1   force =     0.00079173   -0.00019034   -0.00006231
     atom    5 type  1   force =    -0.00056070    0.00059049   -0.00006231
     atom    6 type  1   force =    -0.00015163   -0.00026263   -0.00007369
     atom    7 type  2   force =     0.00010126    0.00017538   -0.00019376
     atom    8 type  3   force =    -0.00001599   -0.00029215    0.00014936
     atom    9 type  3   force =    -0.00024502   -0.00015992    0.00014936

     Total force =     0.001604     Total SCF correction =     0.000375
     SCF correction compared to forces is large: reduce conv_thr to get better values
     Energy error            =      6.0E-06 Ry
     Gradient error          =      7.9E-04 Ry/Bohr

     bfgs converged in   6 scf cycles and   5 bfgs steps
     (criteria: energy <  1.0E-04 Ry, force <  1.0E-03 Ry/Bohr)

     End of BFGS Geometry Optimization

     Final energy             =    -713.8825697376 Ry

     File ./tmp/Zr6NiTe2.bfgs deleted, as requested
Begin final coordinates

ATOMIC_POSITIONS (angstrom)
Zr               1.8318866769       -0.0067234984       -0.0042837187
Zr              -0.9217660589        1.5830986303       -0.0042837187
Zr               2.9468867459        5.1041577485       -0.0042188658
Zr               4.5805810857       -0.0046401028        1.8617067285
Zr              -2.2943089898        3.9645797619        1.8617067285
Zr               1.5704796764        2.7201505238        1.8617481582
Ni              -0.0036016759       -0.0062382857        1.8626950278
Te              -0.0023165427        4.4601539383       -0.0050471698
Te               3.8637650824        2.2280712843       -0.0050471698
End final coordinates



     Writing all to output data dir ./tmp/Zr6NiTe2.save/ :
     XML data file, charge density, pseudopotentials, collected wavefunctions

     init_run     :     24.23s CPU     27.08s WALL (       1 calls)
     electrons    :   2351.33s CPU   2388.14s WALL (       6 calls)
     update_pot   :      1.09s CPU      1.12s WALL (       5 calls)
     forces       :     53.94s CPU     55.27s WALL (       6 calls)

     Called by init_run:
     wfcinit      :     22.57s CPU     24.55s WALL (       1 calls)
     potinit      :      0.28s CPU      0.45s WALL (       1 calls)
     hinit0       :      0.51s CPU      0.57s WALL (       1 calls)

     Called by electrons:
     c_bands      :   2018.48s CPU   2031.87s WALL (      58 calls)
     sum_band     :    280.90s CPU    294.08s WALL (      58 calls)
     v_of_rho     :     10.87s CPU     11.25s WALL (      62 calls)
     newd         :     43.21s CPU     54.49s WALL (      62 calls)
     mix_rho      :      1.87s CPU      1.91s WALL (      58 calls)

     Called by c_bands:
     init_us_2    :     17.43s CPU     17.51s WALL (    1722 calls)
     cegterg      :   1989.55s CPU   2002.79s WALL (     812 calls)

     Called by *egterg:
     cdiaghg      :     23.31s CPU     23.39s WALL (    3538 calls)
     h_psi        :   1054.19s CPU   1066.17s WALL (    3650 calls)
     s_psi        :    228.55s CPU    229.40s WALL (    3650 calls)
     g_psi        :      2.22s CPU      2.24s WALL (    2824 calls)

     Called by h_psi:
     h_psi:calbec :    261.69s CPU    262.61s WALL (    3650 calls)
     vloc_psi     :    560.92s CPU    571.36s WALL (    3650 calls)
     add_vuspsi   :    227.27s CPU    227.85s WALL (    3650 calls)

     General routines
     calbec       :    406.75s CPU    408.12s WALL (    4798 calls)
     fft          :      7.61s CPU      8.02s WALL (     867 calls)
     ffts         :      0.45s CPU      0.49s WALL (     120 calls)
     fftw         :    512.89s CPU    521.41s WALL (  273870 calls)
     interpolate  :      0.95s CPU      0.99s WALL (      62 calls)

     Parallel routines

     PWSCF        :  40m34.54s CPU  41m16.54s WALL


   This run was terminated on:   9:42:19   2Aug2025            

=------------------------------------------------------------------------------=
   JOB DONE.
=------------------------------------------------------------------------------=
