
     Program PWSCF v.7.4.1 starts on  3Aug2025 at 12:36:37 

     This program is part of the open-source Quantum ESPRESSO suite
     for quantum simulation of materials; please cite
         "P. Giannozzi et al., J. Phys.:Condens. Matter 21 395502 (2009);
         "P. Giannozzi et al., J. Phys.:Condens. Matter 29 465901 (2017);
         "P. Giannozzi et al., J. Chem. Phys. 152 154105 (2020);
          URL http://www.quantum-espresso.org", 
     in publications or presentations arising from this work. More details at
     http://www.quantum-espresso.org/quote

     Parallel version (MPI), running on     2 processors

     MPI processes distributed on     1 nodes
     7664 MiB available memory on the printing compute node when the environment starts

     Waiting for input...
     Reading input from standard input
Warning: card &CELL ignored
Warning: card / ignored

     Current dimensions of program PWSCF are:
     Max number of different atomic species (ntypx) = 10
     Max number of k-points (npk) =  40000
     Max angular momentum in pseudopotentials (lmaxx) =  4
     file Co.pbe-nd-rrkjus.upf: wavefunction(s)  4S 3D renormalized

     R & G space division:  proc/nbgrp/npool/nimage =       2
     Subspace diagonalization in iterative solution of the eigenvalue problem:
     a serial algorithm will be used


     Parallelization info
     --------------------
     sticks:   dense  smooth     PW     G-vecs:    dense   smooth      PW
     Min        2688    1785    513                74108    40291    6162
     Max        2689    1786    514                74109    40292    6163
     Sum        5377    3571   1027               148217    80583   12325

     Using Slab Decomposition



     bravais-lattice index     =            4
     lattice parameter (alat)  =      14.6990  a.u.
     unit-cell volume          =    1284.7966 (a.u.)^3
     number of atoms/cell      =            9
     number of atomic types    =            3
     number of electrons       =        93.00
     number of Kohn-Sham states=           56
     kinetic-energy cutoff     =      60.0000  Ry
     charge density cutoff     =     360.0000  Ry
     scf convergence threshold =      1.0E-06
     mixing beta               =       0.4000
     number of iterations used =            8  plain     mixing
     Exchange-correlation= SLA  PW   PBE  PBE
                           (   1   4   3   4   0   0   0)

     celldm(1)=  14.698989  celldm(2)=   0.000000  celldm(3)=   0.467134
     celldm(4)=   0.000000  celldm(5)=   0.000000  celldm(6)=   0.000000

     crystal axes: (cart. coord. in units of alat)
               a(1) = (   1.000000   0.000000   0.000000 )  
               a(2) = (  -0.500000   0.866025   0.000000 )  
               a(3) = (   0.000000   0.000000   0.467134 )  

     reciprocal axes: (cart. coord. in units 2 pi/alat)
               b(1) = (  1.000000  0.577350 -0.000000 )  
               b(2) = (  0.000000  1.154701  0.000000 )  
               b(3) = (  0.000000 -0.000000  2.140714 )  


     PseudoPot. # 1 for Zr read from file:
     /home/tauqeer/Zr6MTe2/sudopoten/Zr.pbe-nsp-van.upf
     MD5 check sum: f06f7249673c13908de31cca45056a07
     Pseudo is Ultrasoft + core correction, Zval = 12.0
     Generated by new atomic code, or converted to UPF format
     Using radial grid of  887 points,  6 beta functions with: 
                l(1) =   0
                l(2) =   0
                l(3) =   1
                l(4) =   1
                l(5) =   2
                l(6) =   2
     Q(r) pseudized with  6 coefficients,  rinner =    1.200   1.200   1.200
                                                       1.200   1.200

     PseudoPot. # 2 for Co read from file:
     /home/tauqeer/Zr6MTe2/sudopoten/Co.pbe-nd-rrkjus.upf
     MD5 check sum: fa92598a13981d18d918d1aa5ec52a54
     Pseudo is Ultrasoft + core correction, Zval =  9.0
     Generated by new atomic code, or converted to UPF format
     Using radial grid of  961 points,  6 beta functions with: 
                l(1) =   0
                l(2) =   0
                l(3) =   1
                l(4) =   1
                l(5) =   2
                l(6) =   2
     Q(r) pseudized with 0 coefficients 


     PseudoPot. # 3 for Te read from file:
     /home/tauqeer/Zr6MTe2/sudopoten/Te.pbe-rrkj.upf
     MD5 check sum: 22c11190d1be98e87836461ecdaaa002
     Pseudo is Norm-conserving, Zval =  6.0
     Generated by new atomic code, or converted to UPF format
     Using radial grid of 1191 points,  3 beta functions with: 
                l(1) =   0
                l(2) =   0
                l(3) =   2

     atomic species   valence    mass     pseudopotential
     Zr               12.00    91.22400     Zr( 1.00)
     Co                9.00    58.93320     Co( 1.00)
     Te                6.00   127.60000     Te( 1.00)

     12 Sym. Ops. (no inversion) found



   Cartesian axes

     site n.     atom                  positions (alat units)
         1        Zr     tau(   1) = (   0.1186974   0.2055899   0.0000000  )
         2        Zr     tau(   2) = (   0.7626053   0.0000000   0.0000000  )
         3        Zr     tau(   3) = (  -0.3813026   0.6604355   0.0000000  )
         4        Zr     tau(   4) = (   0.2975946   0.5154489   0.2335668  )
         5        Zr     tau(   5) = (   0.4048109   0.0000000   0.2335668  )
         6        Zr     tau(   6) = (  -0.2024054   0.3505765   0.2335668  )
         7        Co     tau(   7) = (   0.0000000   0.0000000   0.2335668  )
         8        Te     tau(   8) = (   0.5000000   0.2886751   0.0000000  )
         9        Te     tau(   9) = (  -0.0000000   0.5773503   0.0000000  )

     number of k points=    35  Gaussian smearing, width (Ry)=  0.0100
                       cart. coord. in units 2pi/alat
        k(    1) = (   0.0000000   0.0000000   0.0000000), wk =   0.0069444
        k(    2) = (   0.0000000   0.0000000   0.2675893), wk =   0.0138889
        k(    3) = (   0.0000000   0.0000000   0.5351785), wk =   0.0138889
        k(    4) = (   0.0000000   0.0000000   0.8027678), wk =   0.0138889
        k(    5) = (   0.0000000   0.0000000  -1.0703570), wk =   0.0069444
        k(    6) = (   0.0000000   0.1924501   0.0000000), wk =   0.0416667
        k(    7) = (   0.0000000   0.1924501   0.2675893), wk =   0.0833333
        k(    8) = (   0.0000000   0.1924501   0.5351785), wk =   0.0833333
        k(    9) = (   0.0000000   0.1924501   0.8027678), wk =   0.0833333
        k(   10) = (   0.0000000   0.1924501  -1.0703570), wk =   0.0416667
        k(   11) = (   0.0000000   0.3849002   0.0000000), wk =   0.0416667
        k(   12) = (   0.0000000   0.3849002   0.2675893), wk =   0.0833333
        k(   13) = (   0.0000000   0.3849002   0.5351785), wk =   0.0833333
        k(   14) = (   0.0000000   0.3849002   0.8027678), wk =   0.0833333
        k(   15) = (   0.0000000   0.3849002  -1.0703570), wk =   0.0416667
        k(   16) = (   0.0000000  -0.5773503   0.0000000), wk =   0.0208333
        k(   17) = (   0.0000000  -0.5773503   0.2675893), wk =   0.0416667
        k(   18) = (   0.0000000  -0.5773503   0.5351785), wk =   0.0416667
        k(   19) = (   0.0000000  -0.5773503   0.8027678), wk =   0.0416667
        k(   20) = (   0.0000000  -0.5773503  -1.0703570), wk =   0.0208333
        k(   21) = (   0.1666667   0.2886751   0.0000000), wk =   0.0416667
        k(   22) = (   0.1666667   0.2886751   0.2675893), wk =   0.0833333
        k(   23) = (   0.1666667   0.2886751   0.5351785), wk =   0.0833333
        k(   24) = (   0.1666667   0.2886751   0.8027678), wk =   0.0833333
        k(   25) = (   0.1666667   0.2886751  -1.0703570), wk =   0.0416667
        k(   26) = (   0.1666667   0.4811252   0.0000000), wk =   0.0833333
        k(   27) = (   0.1666667   0.4811252   0.2675893), wk =   0.1666667
        k(   28) = (   0.1666667   0.4811252   0.5351785), wk =   0.1666667
        k(   29) = (   0.1666667   0.4811252   0.8027678), wk =   0.1666667
        k(   30) = (   0.1666667   0.4811252  -1.0703570), wk =   0.0833333
        k(   31) = (   0.3333333   0.5773503   0.0000000), wk =   0.0138889
        k(   32) = (   0.3333333   0.5773503   0.2675893), wk =   0.0277778
        k(   33) = (   0.3333333   0.5773503   0.5351785), wk =   0.0277778
        k(   34) = (   0.3333333   0.5773503   0.8027678), wk =   0.0277778
        k(   35) = (   0.3333333   0.5773503  -1.0703570), wk =   0.0138889

     Dense  grid:   148217 G-vectors     FFT dimensions: (  90,  90,  45)

     Smooth grid:    80583 G-vectors     FFT dimensions: (  75,  75,  36)

     Estimated max dynamical RAM per process >     435.40 MB

     Estimated total dynamical RAM >     870.79 MB

     Check: negative core charge=   -0.000007

     Initial potential from superposition of free atoms

     starting charge      92.5264, renormalised to      93.0000

     negative rho (up, down):  3.646E-01 0.000E+00
     Starting wfcs are  102 randomized atomic wfcs

     total cpu time spent up to now is       62.7 secs

     Self-consistent Calculation

     iteration #  1     ecut=    60.00 Ry     beta= 0.40
     Davidson diagonalization with overlap
     ethr =  1.00E-02,  avg # of iterations =  2.0

     negative rho (up, down):  3.622E-01 0.000E+00

     total cpu time spent up to now is      136.3 secs

     total energy              =    -690.58990118 Ry
     estimated scf accuracy    <      20.47594743 Ry

     iteration #  2     ecut=    60.00 Ry     beta= 0.40
     Davidson diagonalization with overlap
     ethr =  1.00E-02,  avg # of iterations =  6.3

     negative rho (up, down):  3.632E-01 0.000E+00

     total cpu time spent up to now is      283.3 secs

     total energy              =    -695.15880653 Ry
     estimated scf accuracy    <     115.47339637 Ry

     iteration #  3     ecut=    60.00 Ry     beta= 0.40
     Davidson diagonalization with overlap
     ethr =  1.00E-02,  avg # of iterations =  3.2

     negative rho (up, down):  3.649E-01 0.000E+00

     total cpu time spent up to now is      387.1 secs

     total energy              =    -702.90213835 Ry
     estimated scf accuracy    <       9.66936042 Ry

     iteration #  4     ecut=    60.00 Ry     beta= 0.40
     Davidson diagonalization with overlap
     ethr =  1.00E-02,  avg # of iterations =  1.0

     negative rho (up, down):  3.682E-01 0.000E+00

     total cpu time spent up to now is      458.8 secs

     total energy              =    -701.98570101 Ry
     estimated scf accuracy    <       5.60286087 Ry

     iteration #  5     ecut=    60.00 Ry     beta= 0.40
     Davidson diagonalization with overlap
     ethr =  6.02E-03,  avg # of iterations =  1.8

     negative rho (up, down):  3.699E-01 0.000E+00

     total cpu time spent up to now is      543.9 secs

     total energy              =    -702.36124928 Ry
     estimated scf accuracy    <       0.05111642 Ry

     iteration #  6     ecut=    60.00 Ry     beta= 0.40
     Davidson diagonalization with overlap
     c_bands:  1 eigenvalues not converged
     c_bands:  1 eigenvalues not converged
     c_bands:  2 eigenvalues not converged
     c_bands:  1 eigenvalues not converged
     ethr =  5.50E-05,  avg # of iterations = 14.8

     negative rho (up, down):  3.708E-01 0.000E+00

     total cpu time spent up to now is      715.6 secs

     total energy              =    -702.25377696 Ry
     estimated scf accuracy    <       0.64194480 Ry

     iteration #  7     ecut=    60.00 Ry     beta= 0.40
     Davidson diagonalization with overlap
     ethr =  5.50E-05,  avg # of iterations =  8.4

     negative rho (up, down):  3.704E-01 0.000E+00

     total cpu time spent up to now is      842.4 secs

     total energy              =    -702.18117014 Ry
     estimated scf accuracy    <       2.68888110 Ry

     iteration #  8     ecut=    60.00 Ry     beta= 0.40
     Davidson diagonalization with overlap
     ethr =  5.50E-05,  avg # of iterations =  6.6

     negative rho (up, down):  3.712E-01 0.000E+00

     total cpu time spent up to now is      959.2 secs

     total energy              =    -702.37050795 Ry
     estimated scf accuracy    <       0.30785910 Ry

     iteration #  9     ecut=    60.00 Ry     beta= 0.40
     Davidson diagonalization with overlap
     ethr =  5.50E-05,  avg # of iterations =  4.3

     negative rho (up, down):  3.715E-01 0.000E+00

     total cpu time spent up to now is     1047.3 secs

     total energy              =    -702.39293480 Ry
     estimated scf accuracy    <       0.01564324 Ry

     iteration # 10     ecut=    60.00 Ry     beta= 0.40
     Davidson diagonalization with overlap
     ethr =  1.68E-05,  avg # of iterations =  2.1

     negative rho (up, down):  3.716E-01 0.000E+00

     total cpu time spent up to now is     1119.9 secs

     total energy              =    -702.39328990 Ry
     estimated scf accuracy    <       0.01612013 Ry

     iteration # 11     ecut=    60.00 Ry     beta= 0.40
     Davidson diagonalization with overlap
     ethr =  1.68E-05,  avg # of iterations =  1.0

     negative rho (up, down):  3.715E-01 0.000E+00

     total cpu time spent up to now is     1183.6 secs

     total energy              =    -702.39183942 Ry
     estimated scf accuracy    <       0.01252667 Ry

     iteration # 12     ecut=    60.00 Ry     beta= 0.40
     Davidson diagonalization with overlap
     ethr =  1.35E-05,  avg # of iterations =  1.5

     negative rho (up, down):  3.715E-01 0.000E+00

     total cpu time spent up to now is     1253.8 secs

     total energy              =    -702.39271266 Ry
     estimated scf accuracy    <       0.00013838 Ry

     iteration # 13     ecut=    60.00 Ry     beta= 0.40
     Davidson diagonalization with overlap
     ethr =  1.49E-07,  avg # of iterations =  6.5

     negative rho (up, down):  3.715E-01 0.000E+00

     total cpu time spent up to now is     1351.0 secs

     total energy              =    -702.39280172 Ry
     estimated scf accuracy    <       0.00015697 Ry

     iteration # 14     ecut=    60.00 Ry     beta= 0.40
     Davidson diagonalization with overlap
     ethr =  1.49E-07,  avg # of iterations =  1.1

     negative rho (up, down):  3.715E-01 0.000E+00

     total cpu time spent up to now is     1414.8 secs

     total energy              =    -702.39279505 Ry
     estimated scf accuracy    <       0.00008976 Ry

     iteration # 15     ecut=    60.00 Ry     beta= 0.40
     Davidson diagonalization with overlap
     ethr =  9.65E-08,  avg # of iterations =  1.9

     negative rho (up, down):  3.715E-01 0.000E+00

     total cpu time spent up to now is     1486.7 secs

     total energy              =    -702.39279636 Ry
     estimated scf accuracy    <       0.00003978 Ry

     iteration # 16     ecut=    60.00 Ry     beta= 0.40
     Davidson diagonalization with overlap
     ethr =  4.28E-08,  avg # of iterations =  1.1

     negative rho (up, down):  3.715E-01 0.000E+00

     total cpu time spent up to now is     1566.9 secs

     total energy              =    -702.39279594 Ry
     estimated scf accuracy    <       0.00001607 Ry

     iteration # 17     ecut=    60.00 Ry     beta= 0.40
     Davidson diagonalization with overlap
     ethr =  1.73E-08,  avg # of iterations =  2.0

     negative rho (up, down):  3.714E-01 0.000E+00

     total cpu time spent up to now is     1665.6 secs

     total energy              =    -702.39279659 Ry
     estimated scf accuracy    <       0.00000210 Ry

     iteration # 18     ecut=    60.00 Ry     beta= 0.40
     Davidson diagonalization with overlap
     ethr =  2.26E-09,  avg # of iterations =  4.7

     negative rho (up, down):  3.714E-01 0.000E+00

     total cpu time spent up to now is     1765.9 secs

     End of self-consistent calculation

          k = 0.0000 0.0000 0.0000 ( 10025 PWs)   bands (ev):

   -34.9579 -34.9490 -34.9490 -34.5148 -34.4837 -34.4837 -13.2811 -13.1635
   -13.1635 -13.0339 -12.9786 -12.9786 -12.9738 -12.9330 -12.9330 -12.6820
   -12.6672 -12.6672 -12.4898 -12.4143 -12.4143 -12.3873 -12.3861 -12.3861
     0.8062   1.4547   8.1746   8.1746   9.4737   9.4737   9.5536  11.0302
    11.0784  11.6140  11.6140  11.9170  11.9170  12.0295  12.1911  12.1911
    12.1918  13.5667  13.5667  14.4856  14.4856  14.5547  14.6313  14.6313
    14.7488  15.0908  15.0908  15.2692  15.2692  15.4434  15.6478  15.8767

          k = 0.0000 0.0000 0.2676 ( 10079 PWs)   bands (ev):

   -34.9555 -34.9475 -34.9475 -34.5140 -34.4824 -34.4824 -13.2690 -13.1614
   -13.1614 -13.0398 -12.9976 -12.9976 -12.9754 -12.9496 -12.9496 -12.6921
   -12.6499 -12.6499 -12.4951 -12.4366 -12.4366 -12.4158 -12.3846 -12.3846
     0.9431   1.5005   8.3426   8.3426   9.4362   9.4362   9.7502  10.6245
    10.7090  11.4762  11.7421  11.7421  11.9360  11.9360  12.2813  12.2813
    12.4437  13.4385  13.4385  14.1197  14.1197  14.3685  14.4675  14.4675
    14.6570  15.1130  15.1130  15.2196  15.5482  15.7918  15.7918  15.9835

          k = 0.0000 0.0000 0.5352 ( 10073 PWs)   bands (ev):

   -34.9499 -34.9438 -34.9438 -34.5123 -34.4793 -34.4793 -13.2388 -13.1579
   -13.1579 -13.0807 -13.0798 -13.0798 -12.9475 -12.9385 -12.9385 -12.7223
   -12.6236 -12.6236 -12.5086 -12.4827 -12.4698 -12.4698 -12.3985 -12.3985
     1.3099   1.6181   8.7539   8.7539   9.2542   9.3600   9.3600   9.7199
    10.3134  11.6956  11.9189  11.9189  11.9253  11.9253  12.6059  12.6629
    12.6629  13.3325  13.3325  13.5886  13.5886  13.7074  14.0950  14.0950
    14.6870  14.7775  15.2512  15.2512  15.4112  16.0214  16.0214  16.6424

          k = 0.0000 0.0000 0.8028 ( 10037 PWs)   bands (ev):

   -34.9443 -34.9402 -34.9402 -34.5105 -34.4761 -34.4761 -13.2070 -13.1647
   -13.1647 -13.1496 -13.1496 -13.1299 -12.9219 -12.9219 -12.8969 -12.7676
   -12.6093 -12.6093 -12.5468 -12.5237 -12.4836 -12.4836 -12.4259 -12.4259
     1.7473   1.7527   8.0078   8.9667   8.9717   8.9717   9.5659   9.5659
    10.9694  11.7132  11.7132  12.0112  12.0112  12.1189  12.4948  13.0094
    13.0094  13.0834  13.2264  13.2264  13.7217  13.7217  13.9017  13.9017
    14.4155  14.6844  14.7572  14.7573  15.8813  16.2655  16.2656  17.1467

          k = 0.0000 0.0000-1.0704 ( 10072 PWs)   bands (ev):

   -34.9420 -34.9386 -34.9386 -34.5098 -34.4748 -34.4748 -13.1934 -13.1911
   -13.1911 -13.1540 -13.1540 -13.1506 -12.9152 -12.9152 -12.8602 -12.8019
   -12.6053 -12.6053 -12.5729 -12.5305 -12.4806 -12.4806 -12.4446 -12.4446
     1.8050   1.9713   7.5059   8.6815   8.9511   8.9511   9.8295   9.8295
    11.3104  11.5175  11.5175  12.0590  12.0590  12.4140  12.5692  12.5709
    12.9234  12.9234  13.4053  13.4053  13.7386  13.7386  14.1493  14.1493
    14.2811  14.3584  14.3584  14.4767  16.3273  16.3273  16.4476  16.6989

          k = 0.0000 0.1925 0.0000 ( 10061 PWs)   bands (ev):

   -34.9572 -34.9495 -34.9493 -34.5157 -34.4835 -34.4831 -13.2732 -13.1724
   -13.1692 -13.0425 -12.9806 -12.9707 -12.9516 -12.9350 -12.9342 -12.7470
   -12.6570 -12.6012 -12.4927 -12.4303 -12.4169 -12.3963 -12.3849 -12.3783
     0.8463   1.4151   8.1040   8.1994   9.0747   9.4792   9.9931  11.0595
    11.1319  11.5999  11.6952  11.9694  12.0187  12.0187  12.1227  12.1911
    12.2913  13.3143  13.3591  14.3016  14.4793  14.6032  14.7543  14.7739
    14.8650  15.0832  15.2007  15.2984  15.3386  15.4814  15.5751  15.7181

          k = 0.0000 0.1925 0.2676 ( 10077 PWs)   bands (ev):

   -34.9549 -34.9479 -34.9477 -34.5148 -34.4823 -34.4819 -13.2619 -13.1694
   -13.1660 -13.0347 -13.0042 -12.9979 -12.9773 -12.9514 -12.9309 -12.7366
   -12.6425 -12.6040 -12.4974 -12.4525 -12.4362 -12.4075 -12.3900 -12.3864
     0.9783   1.4671   8.2783   8.3540   9.1305   9.4488  10.0969  10.6532
    10.7336  11.4502  11.7346  11.8208  11.9590  11.9949  12.2686  12.3135
    12.5470  13.2867  13.3366  14.0099  14.1449  14.2457  14.4276  14.4915
    14.6949  15.1653  15.3056  15.4243  15.4872  15.7088  15.7551  15.9151

          k = 0.0000 0.1925 0.5352 ( 10092 PWs)   bands (ev):

   -34.9495 -34.9442 -34.9440 -34.5127 -34.4792 -34.4790 -13.2343 -13.1638
   -13.1597 -13.0893 -13.0786 -13.0604 -12.9707 -12.9384 -12.9217 -12.7354
   -12.6225 -12.6111 -12.5097 -12.4939 -12.4665 -12.4544 -12.4039 -12.4023
     1.3312   1.6003   8.6900   8.7351   9.1207   9.3441   9.4173   9.7565
    10.4680  11.6961  11.9019  11.9387  11.9555  11.9709  12.6245  12.7071
    12.7477  13.1628  13.2133  13.6319  13.6625  13.7769  13.9961  14.0192
    14.6582  14.7977  15.3165  15.4013  15.5384  15.9473  16.0030  16.4871

          k = 0.0000 0.1925 0.8028 ( 10075 PWs)   bands (ev):

   -34.9440 -34.9404 -34.9402 -34.5106 -34.4761 -34.4760 -13.2068 -13.1700
   -13.1649 -13.1511 -13.1475 -13.1171 -12.9328 -12.9193 -12.8992 -12.7657
   -12.6173 -12.6142 -12.5414 -12.5233 -12.4790 -12.4733 -12.4314 -12.4280
     1.7469   1.7547   8.0360   8.8324   8.9776   9.0232   9.5051   9.6034
    10.9788  11.7795  11.7936  11.9936  12.0097  12.1375  12.4835  12.8433
    13.0230  13.1111  13.1299  13.3996  13.6619  13.6733  13.8422  13.9321
    14.4354  14.4935  14.9934  15.1823  15.8656  16.2299  16.2776  16.5590

          k = 0.0000 0.1925-1.0704 ( 10070 PWs)   bands (ev):

   -34.9418 -34.9388 -34.9387 -34.5097 -34.4748 -34.4748 -13.1964 -13.1944
   -13.1908 -13.1563 -13.1482 -13.1399 -12.9334 -12.9105 -12.8510 -12.8058
   -12.6190 -12.6116 -12.5630 -12.5293 -12.4756 -12.4686 -12.4503 -12.4466
     1.8123   1.9621   7.5561   8.5809   8.9532   9.0117   9.7739   9.7960
    11.2134  11.6272  11.6557  12.0328  12.0614  12.3851  12.5289  12.6026
    12.9168  12.9727  13.2737  13.4179  13.5323  13.6462  14.0321  14.0600
    14.4057  14.4750  14.6830  14.8609  16.3154  16.4069  16.4226  16.6016

          k = 0.0000 0.3849 0.0000 ( 10070 PWs)   bands (ev):

   -34.9554 -34.9508 -34.9497 -34.5173 -34.4831 -34.4819 -13.2529 -13.1928
   -13.1812 -13.0392 -12.9911 -12.9623 -12.9413 -12.9364 -12.9178 -12.7936
   -12.6261 -12.5522 -12.4984 -12.4646 -12.4254 -12.4039 -12.3822 -12.3731
     0.9487   1.3143   7.9686   8.1443   8.9767   9.4938  10.2627  11.1205
    11.2715  11.5822  11.7615  11.8272  12.0609  12.1979  12.2830  12.2937
    12.3887  12.9875  13.0336  14.1513  14.4970  14.5778  14.8004  14.9249
    15.0030  15.0497  15.1595  15.2635  15.4377  15.4525  15.5679  15.6029

          k = 0.0000 0.3849 0.2676 ( 10096 PWs)   bands (ev):

   -34.9533 -34.9491 -34.9481 -34.5162 -34.4819 -34.4809 -13.2439 -13.1878
   -13.1755 -13.0239 -13.0034 -12.9999 -12.9796 -12.9591 -12.9092 -12.7757
   -12.6216 -12.5629 -12.5021 -12.4729 -12.4383 -12.4073 -12.3938 -12.3905
     1.0678   1.3815   8.1561   8.2650   9.0407   9.4732  10.3639  10.7122
    10.8040  11.3810  11.7411  11.9211  11.9831  12.0792  12.2817  12.4758
    12.6706  13.0193  13.2881  13.7280  14.0804  14.2220  14.3795  14.6125
    14.8261  15.1763  15.3433  15.4964  15.5248  15.5680  15.6812  15.9412

          k = 0.0000 0.3849 0.5352 ( 10083 PWs)   bands (ev):

   -34.9483 -34.9451 -34.9442 -34.5135 -34.4790 -34.4784 -13.2233 -13.1770
   -13.1629 -13.0868 -13.0770 -13.0478 -12.9793 -12.9395 -12.9170 -12.7597
   -12.6215 -12.5927 -12.5118 -12.4890 -12.4608 -12.4404 -12.4207 -12.4099
     1.3842   1.5547   8.5213   8.6484   9.0495   9.3369   9.5532   9.7943
    10.6640  11.6825  11.8852  11.9678  12.0265  12.0687  12.5833  12.7716
    12.8779  12.9790  13.1739  13.4989  13.6041  13.8527  13.9307  14.2091
    14.6020  14.8945  15.3115  15.4769  15.6786  15.8534  15.9712  16.2576

          k = 0.0000 0.3849 0.8028 ( 10073 PWs)   bands (ev):

   -34.9433 -34.9410 -34.9403 -34.5108 -34.4760 -34.4759 -13.2054 -13.1717
   -13.1671 -13.1512 -13.1424 -13.1066 -12.9494 -12.9189 -12.8925 -12.7730
   -12.6322 -12.6216 -12.5224 -12.5200 -12.4726 -12.4586 -12.4445 -12.4320
     1.7461   1.7584   8.1204   8.5802   9.0061   9.1299   9.3897   9.6259
    10.9738  11.9137  11.9468  11.9805  12.0236  12.1717  12.4302  12.7674
    12.9382  13.0483  13.1896  13.3897  13.4706  13.6658  13.7309  13.9975
    14.5811  14.7758  15.2735  15.5320  15.8683  16.1106  16.2496  16.4520

          k = 0.0000 0.3849-1.0704 ( 10056 PWs)   bands (ev):

   -34.9413 -34.9394 -34.9387 -34.5097 -34.4748 -34.4748 -13.1992 -13.1936
   -13.1887 -13.1617 -13.1386 -13.1300 -12.9602 -12.8997 -12.8443 -12.8052
   -12.6524 -12.6195 -12.5381 -12.5270 -12.4682 -12.4671 -12.4505 -12.4467
     1.8331   1.9378   7.6935   8.3506   8.9818   9.1653   9.6335   9.6936
    11.0912  11.8638  11.9114  11.9710  12.0739  12.3214  12.4503  12.6889
    12.8808  12.9866  13.1170  13.3112  13.4546  13.6945  13.7288  13.8159
    14.7151  14.9504  15.1474  15.3184  16.0444  16.2550  16.5759  16.6477

          k = 0.0000-0.5774 0.0000 ( 10114 PWs)   bands (ev):

   -34.9535 -34.9524 -34.9499 -34.5181 -34.4829 -34.4814 -13.2348 -13.2105
   -13.1870 -13.0256 -13.0067 -12.9529 -12.9499 -12.9374 -12.9084 -12.8047
   -12.5919 -12.5578 -12.5012 -12.4735 -12.4337 -12.4068 -12.3808 -12.3716
     1.0313   1.2328   7.8996   8.0804   9.0350   9.5181  10.2942  11.1584
    11.3844  11.6092  11.7049  11.7460  12.1384  12.2262  12.2310  12.3960
    12.5910  12.8011  12.9509  14.1247  14.5052  14.5609  14.5916  14.9205
    15.1477  15.1915  15.1948  15.2622  15.3172  15.3746  15.5230  15.6133

          k = 0.0000-0.5774 0.2676 ( 10106 PWs)   bands (ev):

   -34.9517 -34.9505 -34.9483 -34.5168 -34.4817 -34.4804 -13.2287 -13.2028
   -13.1803 -13.0180 -13.0054 -12.9919 -12.9760 -12.9725 -12.9046 -12.7859
   -12.6035 -12.5595 -12.5044 -12.4740 -12.4437 -12.4118 -12.3929 -12.3920
     1.1397   1.3120   8.0904   8.1912   9.0923   9.4953  10.4036  10.7464
    10.8623  11.3354  11.7588  11.9517  12.0080  12.0893  12.2963  12.5663
    12.6902  13.0322  13.1048  13.7864  14.0312  14.2145  14.4029  14.5506
    14.8755  15.1898  15.2773  15.4794  15.4964  15.5008  15.7105  15.8946

          k = 0.0000-0.5774 0.5352 ( 10094 PWs)   bands (ev):

   -34.9472 -34.9460 -34.9443 -34.5139 -34.4789 -34.4781 -13.2154 -13.1857
   -13.1641 -13.0830 -13.0766 -13.0503 -12.9683 -12.9425 -12.9208 -12.7717
   -12.6214 -12.5862 -12.5128 -12.4705 -12.4625 -12.4360 -12.4352 -12.4141
     1.4261   1.5167   8.4235   8.6061   9.0495   9.3445   9.6416   9.7934
    10.7293  11.6726  11.8881  11.9738  12.0508  12.1370  12.6087  12.7210
    12.7777  12.9810  13.3053  13.3538  13.5781  13.9148  13.9511  14.3540
    14.5741  14.9103  15.2509  15.4224  15.6588  15.8328  16.2011  16.2135

          k = 0.0000-0.5774 0.8028 ( 10072 PWs)   bands (ev):

   -34.9427 -34.9416 -34.9404 -34.5109 -34.4760 -34.4758 -13.2043 -13.1736
   -13.1601 -13.1566 -13.1384 -13.1069 -12.9560 -12.9196 -12.8822 -12.7838
   -12.6385 -12.6246 -12.5219 -12.4991 -12.4712 -12.4684 -12.4412 -12.4357
     1.7459   1.7603   8.2148   8.4108   9.0258   9.2258   9.3036   9.6150
    10.9650  11.9157  11.9658  12.0787  12.0902  12.1699  12.3988  12.7943
    12.8180  13.0388  13.2818  13.3145  13.3418  13.6384  13.6926  14.0937
    14.6593  15.0737  15.3734  15.4847  15.8297  16.0833  16.2878  16.3673

          k = 0.0000-0.5774-1.0704 ( 10048 PWs)   bands (ev):

   -34.9409 -34.9398 -34.9387 -34.5096 -34.4749 -34.4748 -13.1990 -13.1918
   -13.1858 -13.1652 -13.1344 -13.1300 -12.9715 -12.8929 -12.8445 -12.7988
   -12.6730 -12.6223 -12.5258 -12.5177 -12.4834 -12.4654 -12.4524 -12.4367
     1.8502   1.9188   7.8123   8.1885   9.0143   9.2861   9.5333   9.6073
    11.0413  11.9362  12.0242  12.0623  12.0836  12.2899  12.3840  12.7384
    12.7972  12.9288  13.1717  13.2291  13.4568  13.6027  13.6881  13.7854
    14.8095  15.2032  15.4682  15.5522  15.7675  16.2332  16.5479  16.6286

          k = 0.1667 0.2887 0.0000 ( 10084 PWs)   bands (ev):

   -34.9559 -34.9502 -34.9498 -34.5169 -34.4831 -34.4823 -13.2592 -13.1873
   -13.1774 -13.0416 -12.9840 -12.9650 -12.9380 -12.9370 -12.9322 -12.7779
   -12.6402 -12.5603 -12.4969 -12.4557 -12.4225 -12.4025 -12.3824 -12.3744
     0.9184   1.3442   7.9277   8.2908   8.8864   9.5428  10.1982  11.1030
    11.2304  11.6242  11.7148  11.8754  12.0484  12.1944  12.2150  12.2947
    12.2962  13.0644  13.1173  14.2055  14.4659  14.5983  14.8268  14.8946
    14.9788  14.9909  15.0861  15.3456  15.4227  15.4564  15.4584  15.7854

          k = 0.1667 0.2887 0.2676 ( 10092 PWs)   bands (ev):

   -34.9538 -34.9486 -34.9481 -34.5158 -34.4819 -34.4812 -13.2494 -13.1828
   -13.1726 -13.0263 -13.0050 -12.9986 -12.9805 -12.9545 -12.9163 -12.7657
   -12.6294 -12.5706 -12.5009 -12.4686 -12.4368 -12.4058 -12.3945 -12.3893
     1.0414   1.4070   8.1048   8.4257   8.9499   9.5180  10.3054  10.7025
    10.7747  11.4019  11.7685  11.8462  12.0105  12.0548  12.2797  12.4198
    12.6243  13.1437  13.2648  13.7947  14.1453  14.1512  14.3149  14.6174
    14.8737  15.1626  15.3914  15.4141  15.5219  15.5589  15.8690  15.8903

          k = 0.1667 0.2887 0.5352 ( 10098 PWs)   bands (ev):

   -34.9487 -34.9447 -34.9442 -34.5133 -34.4790 -34.4786 -13.2263 -13.1742
   -13.1613 -13.0881 -13.0770 -13.0500 -12.9796 -12.9381 -12.9172 -12.7550
   -12.6188 -12.5989 -12.5112 -12.4929 -12.4610 -12.4439 -12.4123 -12.4112
     1.3687   1.5684   8.5340   8.7312   8.9899   9.4061   9.4935   9.7894
    10.6121  11.6810  11.9065  11.9402  12.0196  12.0386  12.5811  12.7898
    12.8463  13.0429  13.1367  13.6234  13.6814  13.7205  13.8503  14.1716
    14.6711  14.8488  15.3612  15.4477  15.6910  15.8212  16.0166  16.3032

          k = 0.1667 0.2887 0.8028 ( 10072 PWs)   bands (ev):

   -34.9435 -34.9408 -34.9403 -34.5107 -34.4760 -34.4759 -13.2050 -13.1761
   -13.1599 -13.1549 -13.1429 -13.1088 -12.9474 -12.9125 -12.8997 -12.7694
   -12.6270 -12.6228 -12.5271 -12.5225 -12.4706 -12.4628 -12.4409 -12.4319
     1.7469   1.7569   8.0923   8.6670   8.9343   9.1354   9.4356   9.6209
    10.9718  11.8951  11.8988  11.9899  11.9985  12.1499  12.4542  12.8132
    12.9815  13.0817  13.1225  13.4290  13.4848  13.6838  13.7424  13.9564
    14.5956  14.6280  15.2294  15.4614  15.8933  16.1564  16.2392  16.4096

          k = 0.1667 0.2887-1.0704 ( 10050 PWs)   bands (ev):

   -34.9414 -34.9392 -34.9387 -34.5097 -34.4748 -34.4748 -13.1976 -13.1938
   -13.1904 -13.1610 -13.1405 -13.1322 -12.9550 -12.9008 -12.8460 -12.8059
   -12.6358 -12.6267 -12.5455 -12.5275 -12.4660 -12.4608 -12.4546 -12.4505
     1.8271   1.9446   7.6521   8.4145   8.9733   9.1217   9.6646   9.7290
    11.1154  11.8104  11.8299  12.0059  12.0507  12.3082  12.4840  12.7219
    12.9015  13.0168  13.1170  13.3475  13.4276  13.6444  13.8105  13.8678
    14.7047  14.7757  15.0211  15.2081  16.2606  16.2784  16.4855  16.5655

          k = 0.1667 0.4811 0.0000 ( 10119 PWs)   bands (ev):

   -34.9539 -34.9516 -34.9502 -34.5181 -34.4827 -34.4817 -13.2379 -13.2072
   -13.1866 -13.0247 -12.9967 -12.9556 -12.9451 -12.9394 -12.9363 -12.7783
   -12.6084 -12.5562 -12.5012 -12.4683 -12.4339 -12.4072 -12.3794 -12.3727
     1.0285   1.2360   7.7539   8.3367   8.8578   9.6254  10.2456  11.1748
    11.3846  11.6371  11.7025  11.7160  12.1422  12.2097  12.2505  12.3657
    12.5085  12.8847  12.9694  14.2013  14.5214  14.5448  14.6565  14.8420
    14.8751  15.0202  15.0559  15.2369  15.2805  15.5837  15.5850  15.7961

          k = 0.1667 0.4811 0.2676 ( 10105 PWs)   bands (ev):

   -34.9520 -34.9499 -34.9486 -34.5169 -34.4815 -34.4807 -13.2307 -13.2011
   -13.1796 -13.0160 -13.0032 -12.9964 -12.9791 -12.9637 -12.9169 -12.7755
   -12.6071 -12.5635 -12.5045 -12.4703 -12.4425 -12.4129 -12.3930 -12.3922
     1.1371   1.3149   7.9336   8.4482   8.9207   9.6024  10.3695  10.7601
    10.8386  11.3530  11.7910  11.8740  12.0420  12.0818  12.3171  12.5265
    12.6062  13.0886  13.2360  13.7603  14.0523  14.1273  14.2185  14.6708
    15.0167  15.1527  15.2498  15.3593  15.5151  15.5539  15.8518  16.0414

          k = 0.1667 0.4811 0.5352 ( 10082 PWs)   bands (ev):

   -34.9474 -34.9457 -34.9445 -34.5139 -34.4787 -34.4783 -13.2147 -13.1879
   -13.1622 -13.0822 -13.0764 -13.0544 -12.9644 -12.9400 -12.9222 -12.7764
   -12.6145 -12.5916 -12.5128 -12.4740 -12.4569 -12.4368 -12.4305 -12.4195
     1.4238   1.5191   8.3768   8.6925   8.9335   9.4708   9.6399   9.7784
    10.6889  11.6720  11.8929  11.9451  12.0837  12.1253  12.5632  12.6764
    12.8265  13.0957  13.2527  13.4794  13.6021  13.7792  13.7882  14.3895
    14.6743  14.9280  15.3231  15.3811  15.6734  15.8358  16.0206  16.2147

          k = 0.1667 0.4811 0.8028 ( 10069 PWs)   bands (ev):

   -34.9428 -34.9415 -34.9404 -34.5109 -34.4760 -34.4759 -13.2012 -13.1795
   -13.1575 -13.1528 -13.1398 -13.1110 -12.9588 -12.9084 -12.8883 -12.7827
   -12.6370 -12.6295 -12.5218 -12.5012 -12.4661 -12.4617 -12.4468 -12.4378
     1.7480   1.7581   8.2008   8.4534   8.9114   9.2754   9.3734   9.5924
    10.9499  11.9206  11.9543  12.0500  12.0954  12.1194  12.4448  12.8652
    12.9074  13.0650  13.1757  13.3032  13.3623  13.6227  13.6492  14.0613
    14.7316  14.9508  15.4075  15.6087  15.8484  16.1166  16.1690  16.2538

          k = 0.1667 0.4811-1.0704 ( 10046 PWs)   bands (ev):

   -34.9409 -34.9398 -34.9387 -34.5096 -34.4749 -34.4748 -13.1947 -13.1896
   -13.1876 -13.1683 -13.1338 -13.1336 -12.9733 -12.8867 -12.8490 -12.7957
   -12.6637 -12.6362 -12.5258 -12.5192 -12.4795 -12.4581 -12.4547 -12.4410
     1.8526   1.9163   7.8126   8.1886   9.0297   9.2873   9.5141   9.6044
    11.0335  11.9701  12.0134  12.0390  12.0559  12.2162  12.4391  12.8426
    12.9073  12.9656  13.0946  13.2169  13.4259  13.6234  13.6768  13.6777
    14.8844  15.0823  15.4364  15.5836  15.9384  16.2199  16.5368  16.6193

          k = 0.3333 0.5774 0.0000 ( 10158 PWs)   bands (ev):

   -34.9524 -34.9524 -34.9510 -34.5185 -34.4820 -34.4820 -13.2219 -13.2219
   -13.1898 -12.9993 -12.9993 -12.9727 -12.9480 -12.9480 -12.9442 -12.7535
   -12.5878 -12.5878 -12.5027 -12.4497 -12.4497 -12.4088 -12.3752 -12.3752
     1.1328   1.1328   7.6427   8.6213   8.6213   9.7272  10.1867  11.2215
    11.5412  11.5412  11.6762  11.6762  12.2242  12.2242  12.2627  12.2627
    12.5219  12.9424  12.9424  14.3338  14.5830  14.5830  14.6350  14.6898
    14.6898  14.7038  15.1067  15.1777  15.1777  15.7833  15.8845  15.9193

          k = 0.3333 0.5774 0.2676 ( 10119 PWs)   bands (ev):

   -34.9506 -34.9506 -34.9492 -34.5172 -34.4809 -34.4809 -13.2157 -13.2157
   -13.1815 -13.0044 -13.0035 -13.0035 -12.9679 -12.9679 -12.9337 -12.7668
   -12.5861 -12.5861 -12.5057 -12.4536 -12.4536 -12.4169 -12.3928 -12.3928
     1.2268   1.2268   7.8260   8.7008   8.7008   9.6993  10.3330  10.8186
    10.8186  11.3551  11.8306  11.8306  12.0736  12.0736  12.4253  12.4253
    12.5169  13.2391  13.2391  13.7941  14.0103  14.0796  14.0796  14.7502
    15.0595  15.0595  15.2483  15.2483  15.6111  15.7986  15.8861  15.8861

          k = 0.3333 0.5774 0.5352 ( 10074 PWs)   bands (ev):

   -34.9464 -34.9464 -34.9448 -34.5141 -34.4784 -34.4784 -13.2021 -13.2021
   -13.1611 -13.0763 -13.0763 -13.0640 -12.9403 -12.9403 -12.9366 -12.7882
   -12.6009 -12.6009 -12.5133 -12.4561 -12.4561 -12.4348 -12.4340 -12.4340
     1.4725   1.4725   8.3019   8.7918   8.7918   9.6211   9.7056   9.7056
    10.6642  11.6810  11.8988  11.8988  12.1475  12.1475  12.4835  12.7261
    12.7261  13.2487  13.3730  13.5008  13.5008  13.6818  13.6818  14.5001
    14.8276  14.8276  15.3286  15.3286  15.8528  15.9101  15.9101  15.9660

          k = 0.3333 0.5774 0.8028 ( 10092 PWs)   bands (ev):

   -34.9421 -34.9421 -34.9405 -34.5109 -34.4759 -34.4759 -13.1909 -13.1909
   -13.1508 -13.1508 -13.1400 -13.1190 -12.9638 -12.8923 -12.8923 -12.7897
   -12.6373 -12.6373 -12.5216 -12.4790 -12.4790 -12.4514 -12.4481 -12.4481
     1.7534   1.7534   8.3220   8.3220   8.8391   9.3903   9.3903   9.5286
    10.9282  11.9411  11.9411  11.9964  12.1434  12.1434  12.4615  12.9885
    13.0167  13.0167  13.1225  13.2674  13.2674  13.5927  13.5927  14.0577
    14.9130  14.9130  15.6108  15.6108  15.9320  16.0068  16.0068  16.1756

          k = 0.3333 0.5774-1.0704 ( 10014 PWs)   bands (ev):

   -34.9403 -34.9403 -34.9387 -34.5096 -34.4748 -34.4748 -13.1877 -13.1877
   -13.1797 -13.1797 -13.1412 -13.1310 -12.9802 -12.8656 -12.8656 -12.7854
   -12.6595 -12.6595 -12.5252 -12.4970 -12.4970 -12.4582 -12.4452 -12.4452
     1.8839   1.8839   7.9904   7.9904   9.0848   9.4203   9.4203   9.4866
    11.0022  12.0154  12.0154  12.0909  12.0909  12.1362  12.4713  12.8627
    13.0030  13.0030  13.1701  13.1701  13.3750  13.5336  13.5937  13.5937
    15.0426  15.0426  15.6825  15.6825  15.9957  16.2973  16.4991  16.4995

     the Fermi energy is    14.1491 ev

!    total energy              =    -702.39279691 Ry
     estimated scf accuracy    <       0.00000007 Ry
     smearing contrib. (-TS)   =      -0.00486040 Ry
     internal energy E=F+TS    =    -702.38793651 Ry

     The total energy is F=E-TS. E is the sum of the following terms:
     one-electron contribution =    -135.67146622 Ry
     hartree contribution      =     115.76852733 Ry
     xc contribution           =    -147.25288534 Ry
     ewald contribution        =    -535.23211228 Ry

     convergence has been achieved in  18 iterations

     Writing all to output data dir ./tmp/Zr6CoTe2.save/ :
     XML data file, charge density, pseudopotentials, collected wavefunctions

     init_run     :     61.84s CPU     62.56s WALL (       1 calls)
     electrons    :   1689.69s CPU   1703.23s WALL (       1 calls)

     Called by init_run:
     wfcinit      :     60.41s CPU     60.89s WALL (       1 calls)
     potinit      :      0.31s CPU      0.35s WALL (       1 calls)
     hinit0       :      0.34s CPU      0.35s WALL (       1 calls)

     Called by electrons:
     c_bands      :   1501.48s CPU   1508.88s WALL (      18 calls)
     sum_band     :    173.31s CPU    177.04s WALL (      18 calls)
     v_of_rho     :      2.60s CPU      2.68s WALL (      19 calls)
     newd         :     12.41s CPU     14.93s WALL (      19 calls)
     mix_rho      :      0.50s CPU      0.51s WALL (      18 calls)

     Called by c_bands:
     init_us_2    :      9.83s CPU      9.88s WALL (    1295 calls)
     cegterg      :   1481.54s CPU   1488.86s WALL (     630 calls)

     Called by *egterg:
     cdiaghg      :     20.46s CPU     20.50s WALL (    3099 calls)
     h_psi        :    778.18s CPU    784.60s WALL (    3134 calls)
     s_psi        :    173.92s CPU    174.18s WALL (    3134 calls)
     g_psi        :      1.75s CPU      1.76s WALL (    2469 calls)

     Called by h_psi:
     h_psi:calbec :    228.51s CPU    229.00s WALL (    3134 calls)
     vloc_psi     :    371.97s CPU    377.51s WALL (    3134 calls)
     add_vuspsi   :    175.10s CPU    175.38s WALL (    3134 calls)

     General routines
     calbec       :    315.30s CPU    315.92s WALL (    3764 calls)
     fft          :      1.84s CPU      1.91s WALL (     245 calls)
     ffts         :      0.11s CPU      0.12s WALL (      37 calls)
     fftw         :    358.57s CPU    363.68s WALL (  221048 calls)
     interpolate  :      0.27s CPU      0.28s WALL (      19 calls)

     Parallel routines

     PWSCF        :  29m11.82s CPU  29m26.25s WALL


   This run was terminated on:  13: 6: 3   3Aug2025            

=------------------------------------------------------------------------------=
   JOB DONE.
=------------------------------------------------------------------------------=
