
     Program PWSCF v.7.4.1 starts on  3Aug2025 at 13: 7:52 

     This program is part of the open-source Quantum ESPRESSO suite
     for quantum simulation of materials; please cite
         "P. Giannozzi et al., J. Phys.:Condens. Matter 21 395502 (2009);
         "P. Giannozzi et al., J. Phys.:Condens. Matter 29 465901 (2017);
         "P. Giannozzi et al., J. Chem. Phys. 152 154105 (2020);
          URL http://www.quantum-espresso.org", 
     in publications or presentations arising from this work. More details at
     http://www.quantum-espresso.org/quote

     Parallel version (MPI), running on     2 processors

     MPI processes distributed on     1 nodes
     7288 MiB available memory on the printing compute node when the environment starts

     Waiting for input...
     Reading input from standard input
Warning: card &IONS ignored
Warning: card     ION_DYNAMICS             = "BFGS" ignored
Warning: card / ignored
Warning: card &CELL ignored
Warning: card / ignored

     Current dimensions of program PWSCF are:
     Max number of different atomic species (ntypx) = 10
     Max number of k-points (npk) =  40000
     Max angular momentum in pseudopotentials (lmaxx) =  4
     Message from routine input:
     WARNING: "startingwfc" set to atomic+random may spoil restart
     Message from routine input:
     WARNING: "startingpot" set to atomic may spoil restart
     file Co.pbe-nd-rrkjus.upf: wavefunction(s)  4S 3D renormalized

     R & G space division:  proc/nbgrp/npool/nimage =       2
     Subspace diagonalization in iterative solution of the eigenvalue problem:
     a serial algorithm will be used


     Parallelization info
     --------------------
     sticks:   dense  smooth     PW     G-vecs:    dense   smooth      PW
     Min        2688    1785    513                74108    40291    6162
     Max        2689    1786    514                74109    40292    6163
     Sum        5377    3571   1027               148217    80583   12325

     Using Slab Decomposition



     bravais-lattice index     =            4
     lattice parameter (alat)  =      14.6990  a.u.
     unit-cell volume          =    1284.7966 (a.u.)^3
     number of atoms/cell      =            9
     number of atomic types    =            3
     number of electrons       =        93.00
     number of Kohn-Sham states=           56
     kinetic-energy cutoff     =      60.0000  Ry
     charge density cutoff     =     360.0000  Ry
     Exchange-correlation= SLA  PW   PBE  PBE
                           (   1   4   3   4   0   0   0)

     celldm(1)=  14.698989  celldm(2)=   0.000000  celldm(3)=   0.467134
     celldm(4)=   0.000000  celldm(5)=   0.000000  celldm(6)=   0.000000

     crystal axes: (cart. coord. in units of alat)
               a(1) = (   1.000000   0.000000   0.000000 )  
               a(2) = (  -0.500000   0.866025   0.000000 )  
               a(3) = (   0.000000   0.000000   0.467134 )  

     reciprocal axes: (cart. coord. in units 2 pi/alat)
               b(1) = (  1.000000  0.577350 -0.000000 )  
               b(2) = (  0.000000  1.154701  0.000000 )  
               b(3) = (  0.000000 -0.000000  2.140714 )  


     PseudoPot. # 1 for Zr read from file:
     /home/tauqeer/Zr6MTe2/sudopoten/Zr.pbe-nsp-van.upf
     MD5 check sum: f06f7249673c13908de31cca45056a07
     Pseudo is Ultrasoft + core correction, Zval = 12.0
     Generated by new atomic code, or converted to UPF format
     Using radial grid of  887 points,  6 beta functions with: 
                l(1) =   0
                l(2) =   0
                l(3) =   1
                l(4) =   1
                l(5) =   2
                l(6) =   2
     Q(r) pseudized with  6 coefficients,  rinner =    1.200   1.200   1.200
                                                       1.200   1.200

     PseudoPot. # 2 for Co read from file:
     /home/tauqeer/Zr6MTe2/sudopoten/Co.pbe-nd-rrkjus.upf
     MD5 check sum: fa92598a13981d18d918d1aa5ec52a54
     Pseudo is Ultrasoft + core correction, Zval =  9.0
     Generated by new atomic code, or converted to UPF format
     Using radial grid of  961 points,  6 beta functions with: 
                l(1) =   0
                l(2) =   0
                l(3) =   1
                l(4) =   1
                l(5) =   2
                l(6) =   2
     Q(r) pseudized with 0 coefficients 


     PseudoPot. # 3 for Te read from file:
     /home/tauqeer/Zr6MTe2/sudopoten/Te.pbe-rrkj.upf
     MD5 check sum: 22c11190d1be98e87836461ecdaaa002
     Pseudo is Norm-conserving, Zval =  6.0
     Generated by new atomic code, or converted to UPF format
     Using radial grid of 1191 points,  3 beta functions with: 
                l(1) =   0
                l(2) =   0
                l(3) =   2

     atomic species   valence    mass     pseudopotential
     Zr               12.00    91.22400     Zr( 1.00)
     Co                9.00    58.93320     Co( 1.00)
     Te                6.00   127.60000     Te( 1.00)

     12 Sym. Ops. (no inversion) found


                                    s                        frac. trans.

      isym =  1     identity                                     

 cryst.   s( 1) = (     1          0          0      )
                  (     0          1          0      )
                  (     0          0          1      )

 cart.    s( 1) = (  1.0000000  0.0000000  0.0000000 )
                  (  0.0000000  1.0000000  0.0000000 )
                  (  0.0000000  0.0000000  1.0000000 )


      isym =  2     180 deg rotation - cart. axis [1,0,0]        

 cryst.   s( 2) = (     1          0          0      )
                  (    -1         -1          0      )
                  (     0          0         -1      )

 cart.    s( 2) = (  1.0000000  0.0000000  0.0000000 )
                  (  0.0000000 -1.0000000  0.0000000 )
                  (  0.0000000  0.0000000 -1.0000000 )


      isym =  3     120 deg rotation - cryst. axis [0,0,1]       

 cryst.   s( 3) = (     0          1          0      )
                  (    -1         -1          0      )
                  (     0          0          1      )

 cart.    s( 3) = ( -0.5000000 -0.8660254  0.0000000 )
                  (  0.8660254 -0.5000000  0.0000000 )
                  (  0.0000000  0.0000000  1.0000000 )


      isym =  4     120 deg rotation - cryst. axis [0,0,-1]      

 cryst.   s( 4) = (    -1         -1          0      )
                  (     1          0          0      )
                  (     0          0          1      )

 cart.    s( 4) = ( -0.5000000  0.8660254  0.0000000 )
                  ( -0.8660254 -0.5000000  0.0000000 )
                  (  0.0000000  0.0000000  1.0000000 )


      isym =  5     180 deg rotation - cryst. axis [0,1,0]       

 cryst.   s( 5) = (    -1         -1          0      )
                  (     0          1          0      )
                  (     0          0         -1      )

 cart.    s( 5) = ( -0.5000000 -0.8660254  0.0000000 )
                  ( -0.8660254  0.5000000  0.0000000 )
                  (  0.0000000  0.0000000 -1.0000000 )


      isym =  6     180 deg rotation - cryst. axis [1,1,0]       

 cryst.   s( 6) = (     0          1          0      )
                  (     1          0          0      )
                  (     0          0         -1      )

 cart.    s( 6) = ( -0.5000000  0.8660254  0.0000000 )
                  (  0.8660254  0.5000000  0.0000000 )
                  (  0.0000000  0.0000000 -1.0000000 )


      isym =  7     inv. 180 deg rotation - cart. axis [0,0,1]   

 cryst.   s( 7) = (     1          0          0      )
                  (     0          1          0      )
                  (     0          0         -1      )

 cart.    s( 7) = (  1.0000000  0.0000000  0.0000000 )
                  (  0.0000000  1.0000000  0.0000000 )
                  (  0.0000000  0.0000000 -1.0000000 )


      isym =  8     inv. 180 deg rotation - cart. axis [0,1,0]   

 cryst.   s( 8) = (     1          0          0      )
                  (    -1         -1          0      )
                  (     0          0          1      )

 cart.    s( 8) = (  1.0000000  0.0000000  0.0000000 )
                  (  0.0000000 -1.0000000  0.0000000 )
                  (  0.0000000  0.0000000  1.0000000 )


      isym =  9     inv.  60 deg rotation - cryst. axis [0,0,1]  

 cryst.   s( 9) = (    -1         -1          0      )
                  (     1          0          0      )
                  (     0          0         -1      )

 cart.    s( 9) = ( -0.5000000  0.8660254  0.0000000 )
                  ( -0.8660254 -0.5000000  0.0000000 )
                  (  0.0000000  0.0000000 -1.0000000 )


      isym = 10     inv.  60 deg rotation - cryst. axis [0,0,-1] 

 cryst.   s(10) = (     0          1          0      )
                  (    -1         -1          0      )
                  (     0          0         -1      )

 cart.    s(10) = ( -0.5000000 -0.8660254  0.0000000 )
                  (  0.8660254 -0.5000000  0.0000000 )
                  (  0.0000000  0.0000000 -1.0000000 )


      isym = 11     inv. 180 deg rotation - cryst. axis [1,-1,0] 

 cryst.   s(11) = (     0          1          0      )
                  (     1          0          0      )
                  (     0          0          1      )

 cart.    s(11) = ( -0.5000000  0.8660254  0.0000000 )
                  (  0.8660254  0.5000000  0.0000000 )
                  (  0.0000000  0.0000000  1.0000000 )


      isym = 12     inv. 180 deg rotation - cryst. axis [2,1,0]  

 cryst.   s(12) = (    -1         -1          0      )
                  (     0          1          0      )
                  (     0          0          1      )

 cart.    s(12) = ( -0.5000000 -0.8660254  0.0000000 )
                  ( -0.8660254  0.5000000  0.0000000 )
                  (  0.0000000  0.0000000  1.0000000 )


     point group D_3h (-62m)
     there are  6 classes
     the character table:

       E     2C3   3C2   s_h   2S3   3s_v 
A'_1   1.00  1.00  1.00  1.00  1.00  1.00
A'_2   1.00  1.00 -1.00  1.00  1.00 -1.00
E'     2.00 -1.00  0.00  2.00 -1.00  0.00
A''1   1.00  1.00  1.00 -1.00 -1.00 -1.00
A''2   1.00  1.00 -1.00 -1.00 -1.00  1.00
E''    2.00 -1.00  0.00 -2.00  1.00  0.00

     the symmetry operations in each class and the name of the first element:

     E        1
          identity                                               
     2C3      3    4
          120 deg rotation - cryst. axis [0,0,1]                 
     3C2      2    5    6
          180 deg rotation - cart. axis [1,0,0]                  
     s_h      7
          inv. 180 deg rotation - cart. axis [0,0,1]             
     2S3      9   10
          inv.  60 deg rotation - cryst. axis [0,0,1]            
     3s_v     8   12   11
          inv. 180 deg rotation - cart. axis [0,1,0]             

   Cartesian axes

     site n.     atom                  positions (alat units)
         1        Zr     tau(   1) = (   0.1186974   0.2055899   0.0000000  )
         2        Zr     tau(   2) = (   0.7626053   0.0000000   0.0000000  )
         3        Zr     tau(   3) = (  -0.3813026   0.6604355   0.0000000  )
         4        Zr     tau(   4) = (   0.2975946   0.5154489   0.2335668  )
         5        Zr     tau(   5) = (   0.4048109   0.0000000   0.2335668  )
         6        Zr     tau(   6) = (  -0.2024054   0.3505765   0.2335668  )
         7        Co     tau(   7) = (   0.0000000   0.0000000   0.2335668  )
         8        Te     tau(   8) = (   0.5000000   0.2886751   0.0000000  )
         9        Te     tau(   9) = (  -0.0000000   0.5773503   0.0000000  )

   Crystallographic axes

     site n.     atom                  positions (cryst. coord.)
         1        Zr     tau(   1) = (  0.2373947  0.2373947  0.0000000  )
         2        Zr     tau(   2) = (  0.7626053  0.0000000  0.0000000  )
         3        Zr     tau(   3) = ( -0.0000000  0.7626053  0.0000000  )
         4        Zr     tau(   4) = (  0.5951892  0.5951891  0.4999997  )
         5        Zr     tau(   5) = (  0.4048109  0.0000000  0.4999997  )
         6        Zr     tau(   6) = (  0.0000001  0.4048109  0.4999997  )
         7        Co     tau(   7) = (  0.0000000  0.0000000  0.4999997  )
         8        Te     tau(   8) = (  0.6666667  0.3333333  0.0000000  )
         9        Te     tau(   9) = (  0.3333333  0.6666667  0.0000000  )

     number of k points=   114  Gaussian smearing, width (Ry)=  0.0100
                       cart. coord. in units 2pi/alat
        k(    1) = (   0.0000000   0.0000000   0.0000000), wk =   0.0013889
        k(    2) = (   0.0000000   0.0000000   0.2140714), wk =   0.0027778
        k(    3) = (   0.0000000   0.0000000   0.4281428), wk =   0.0027778
        k(    4) = (   0.0000000   0.0000000   0.6422142), wk =   0.0027778
        k(    5) = (   0.0000000   0.0000000   0.8562856), wk =   0.0027778
        k(    6) = (   0.0000000   0.0000000  -1.0703570), wk =   0.0013889
        k(    7) = (   0.0000000   0.0962250   0.0000000), wk =   0.0083333
        k(    8) = (   0.0000000   0.0962250   0.2140714), wk =   0.0166667
        k(    9) = (   0.0000000   0.0962250   0.4281428), wk =   0.0166667
        k(   10) = (   0.0000000   0.0962250   0.6422142), wk =   0.0166667
        k(   11) = (   0.0000000   0.0962250   0.8562856), wk =   0.0166667
        k(   12) = (   0.0000000   0.0962250  -1.0703570), wk =   0.0083333
        k(   13) = (   0.0000000   0.1924501   0.0000000), wk =   0.0083333
        k(   14) = (   0.0000000   0.1924501   0.2140714), wk =   0.0166667
        k(   15) = (   0.0000000   0.1924501   0.4281428), wk =   0.0166667
        k(   16) = (   0.0000000   0.1924501   0.6422142), wk =   0.0166667
        k(   17) = (   0.0000000   0.1924501   0.8562856), wk =   0.0166667
        k(   18) = (   0.0000000   0.1924501  -1.0703570), wk =   0.0083333
        k(   19) = (   0.0000000   0.2886751   0.0000000), wk =   0.0083333
        k(   20) = (   0.0000000   0.2886751   0.2140714), wk =   0.0166667
        k(   21) = (   0.0000000   0.2886751   0.4281428), wk =   0.0166667
        k(   22) = (   0.0000000   0.2886751   0.6422142), wk =   0.0166667
        k(   23) = (   0.0000000   0.2886751   0.8562856), wk =   0.0166667
        k(   24) = (   0.0000000   0.2886751  -1.0703570), wk =   0.0083333
        k(   25) = (   0.0000000   0.3849002   0.0000000), wk =   0.0083333
        k(   26) = (   0.0000000   0.3849002   0.2140714), wk =   0.0166667
        k(   27) = (   0.0000000   0.3849002   0.4281428), wk =   0.0166667
        k(   28) = (   0.0000000   0.3849002   0.6422142), wk =   0.0166667
        k(   29) = (   0.0000000   0.3849002   0.8562856), wk =   0.0166667
        k(   30) = (   0.0000000   0.3849002  -1.0703570), wk =   0.0083333
        k(   31) = (   0.0000000   0.4811252   0.0000000), wk =   0.0083333
        k(   32) = (   0.0000000   0.4811252   0.2140714), wk =   0.0166667
        k(   33) = (   0.0000000   0.4811252   0.4281428), wk =   0.0166667
        k(   34) = (   0.0000000   0.4811252   0.6422142), wk =   0.0166667
        k(   35) = (   0.0000000   0.4811252   0.8562856), wk =   0.0166667
        k(   36) = (   0.0000000   0.4811252  -1.0703570), wk =   0.0083333
        k(   37) = (   0.0000000  -0.5773503   0.0000000), wk =   0.0041667
        k(   38) = (   0.0000000  -0.5773503   0.2140714), wk =   0.0083333
        k(   39) = (   0.0000000  -0.5773503   0.4281428), wk =   0.0083333
        k(   40) = (   0.0000000  -0.5773503   0.6422142), wk =   0.0083333
        k(   41) = (   0.0000000  -0.5773503   0.8562856), wk =   0.0083333
        k(   42) = (   0.0000000  -0.5773503  -1.0703570), wk =   0.0041667
        k(   43) = (   0.0833333   0.1443376   0.0000000), wk =   0.0083333
        k(   44) = (   0.0833333   0.1443376   0.2140714), wk =   0.0166667
        k(   45) = (   0.0833333   0.1443376   0.4281428), wk =   0.0166667
        k(   46) = (   0.0833333   0.1443376   0.6422142), wk =   0.0166667
        k(   47) = (   0.0833333   0.1443376   0.8562856), wk =   0.0166667
        k(   48) = (   0.0833333   0.1443376  -1.0703570), wk =   0.0083333
        k(   49) = (   0.0833333   0.2405626   0.0000000), wk =   0.0166667
        k(   50) = (   0.0833333   0.2405626   0.2140714), wk =   0.0333333
        k(   51) = (   0.0833333   0.2405626   0.4281428), wk =   0.0333333
        k(   52) = (   0.0833333   0.2405626   0.6422142), wk =   0.0333333
        k(   53) = (   0.0833333   0.2405626   0.8562856), wk =   0.0333333
        k(   54) = (   0.0833333   0.2405626  -1.0703570), wk =   0.0166667
        k(   55) = (   0.0833333   0.3367877   0.0000000), wk =   0.0166667
        k(   56) = (   0.0833333   0.3367877   0.2140714), wk =   0.0333333
        k(   57) = (   0.0833333   0.3367877   0.4281428), wk =   0.0333333
        k(   58) = (   0.0833333   0.3367877   0.6422142), wk =   0.0333333
        k(   59) = (   0.0833333   0.3367877   0.8562856), wk =   0.0333333
        k(   60) = (   0.0833333   0.3367877  -1.0703570), wk =   0.0166667
        k(   61) = (   0.0833333   0.4330127   0.0000000), wk =   0.0166667
        k(   62) = (   0.0833333   0.4330127   0.2140714), wk =   0.0333333
        k(   63) = (   0.0833333   0.4330127   0.4281428), wk =   0.0333333
        k(   64) = (   0.0833333   0.4330127   0.6422142), wk =   0.0333333
        k(   65) = (   0.0833333   0.4330127   0.8562856), wk =   0.0333333
        k(   66) = (   0.0833333   0.4330127  -1.0703570), wk =   0.0166667
        k(   67) = (   0.0833333   0.5292377   0.0000000), wk =   0.0166667
        k(   68) = (   0.0833333   0.5292377   0.2140714), wk =   0.0333333
        k(   69) = (   0.0833333   0.5292377   0.4281428), wk =   0.0333333
        k(   70) = (   0.0833333   0.5292377   0.6422142), wk =   0.0333333
        k(   71) = (   0.0833333   0.5292377   0.8562856), wk =   0.0333333
        k(   72) = (   0.0833333   0.5292377  -1.0703570), wk =   0.0166667
        k(   73) = (   0.1666667   0.2886751   0.0000000), wk =   0.0083333
        k(   74) = (   0.1666667   0.2886751   0.2140714), wk =   0.0166667
        k(   75) = (   0.1666667   0.2886751   0.4281428), wk =   0.0166667
        k(   76) = (   0.1666667   0.2886751   0.6422142), wk =   0.0166667
        k(   77) = (   0.1666667   0.2886751   0.8562856), wk =   0.0166667
        k(   78) = (   0.1666667   0.2886751  -1.0703570), wk =   0.0083333
        k(   79) = (   0.1666667   0.3849002   0.0000000), wk =   0.0166667
        k(   80) = (   0.1666667   0.3849002   0.2140714), wk =   0.0333333
        k(   81) = (   0.1666667   0.3849002   0.4281428), wk =   0.0333333
        k(   82) = (   0.1666667   0.3849002   0.6422142), wk =   0.0333333
        k(   83) = (   0.1666667   0.3849002   0.8562856), wk =   0.0333333
        k(   84) = (   0.1666667   0.3849002  -1.0703570), wk =   0.0166667
        k(   85) = (   0.1666667   0.4811252   0.0000000), wk =   0.0166667
        k(   86) = (   0.1666667   0.4811252   0.2140714), wk =   0.0333333
        k(   87) = (   0.1666667   0.4811252   0.4281428), wk =   0.0333333
        k(   88) = (   0.1666667   0.4811252   0.6422142), wk =   0.0333333
        k(   89) = (   0.1666667   0.4811252   0.8562856), wk =   0.0333333
        k(   90) = (   0.1666667   0.4811252  -1.0703570), wk =   0.0166667
        k(   91) = (   0.1666667   0.5773503   0.0000000), wk =   0.0083333
        k(   92) = (   0.1666667   0.5773503   0.2140714), wk =   0.0166667
        k(   93) = (   0.1666667   0.5773503   0.4281428), wk =   0.0166667
        k(   94) = (   0.1666667   0.5773503   0.6422142), wk =   0.0166667
        k(   95) = (   0.1666667   0.5773503   0.8562856), wk =   0.0166667
        k(   96) = (   0.1666667   0.5773503  -1.0703570), wk =   0.0083333
        k(   97) = (   0.2500000   0.4330127   0.0000000), wk =   0.0083333
        k(   98) = (   0.2500000   0.4330127   0.2140714), wk =   0.0166667
        k(   99) = (   0.2500000   0.4330127   0.4281428), wk =   0.0166667
        k(  100) = (   0.2500000   0.4330127   0.6422142), wk =   0.0166667
        k(  101) = (   0.2500000   0.4330127   0.8562856), wk =   0.0166667
        k(  102) = (   0.2500000   0.4330127  -1.0703570), wk =   0.0083333
        k(  103) = (   0.2500000   0.5292377   0.0000000), wk =   0.0166667
        k(  104) = (   0.2500000   0.5292377   0.2140714), wk =   0.0333333
        k(  105) = (   0.2500000   0.5292377   0.4281428), wk =   0.0333333
        k(  106) = (   0.2500000   0.5292377   0.6422142), wk =   0.0333333
        k(  107) = (   0.2500000   0.5292377   0.8562856), wk =   0.0333333
        k(  108) = (   0.2500000   0.5292377  -1.0703570), wk =   0.0166667
        k(  109) = (   0.3333333   0.5773503   0.0000000), wk =   0.0027778
        k(  110) = (   0.3333333   0.5773503   0.2140714), wk =   0.0055556
        k(  111) = (   0.3333333   0.5773503   0.4281428), wk =   0.0055556
        k(  112) = (   0.3333333   0.5773503   0.6422142), wk =   0.0055556
        k(  113) = (   0.3333333   0.5773503   0.8562856), wk =   0.0055556
        k(  114) = (   0.3333333   0.5773503  -1.0703570), wk =   0.0027778

                       cryst. coord.
        k(    1) = (   0.0000000   0.0000000   0.0000000), wk =   0.0013889
        k(    2) = (   0.0000000   0.0000000   0.1000000), wk =   0.0027778
        k(    3) = (   0.0000000   0.0000000   0.2000000), wk =   0.0027778
        k(    4) = (   0.0000000   0.0000000   0.3000000), wk =   0.0027778
        k(    5) = (   0.0000000   0.0000000   0.4000000), wk =   0.0027778
        k(    6) = (   0.0000000   0.0000000  -0.5000000), wk =   0.0013889
        k(    7) = (   0.0000000   0.0833333   0.0000000), wk =   0.0083333
        k(    8) = (   0.0000000   0.0833333   0.1000000), wk =   0.0166667
        k(    9) = (   0.0000000   0.0833333   0.2000000), wk =   0.0166667
        k(   10) = (   0.0000000   0.0833333   0.3000000), wk =   0.0166667
        k(   11) = (   0.0000000   0.0833333   0.4000000), wk =   0.0166667
        k(   12) = (   0.0000000   0.0833333  -0.5000000), wk =   0.0083333
        k(   13) = (   0.0000000   0.1666667   0.0000000), wk =   0.0083333
        k(   14) = (   0.0000000   0.1666667   0.1000000), wk =   0.0166667
        k(   15) = (   0.0000000   0.1666667   0.2000000), wk =   0.0166667
        k(   16) = (   0.0000000   0.1666667   0.3000000), wk =   0.0166667
        k(   17) = (   0.0000000   0.1666667   0.4000000), wk =   0.0166667
        k(   18) = (   0.0000000   0.1666667  -0.5000000), wk =   0.0083333
        k(   19) = (   0.0000000   0.2500000   0.0000000), wk =   0.0083333
        k(   20) = (   0.0000000   0.2500000   0.1000000), wk =   0.0166667
        k(   21) = (   0.0000000   0.2500000   0.2000000), wk =   0.0166667
        k(   22) = (   0.0000000   0.2500000   0.3000000), wk =   0.0166667
        k(   23) = (   0.0000000   0.2500000   0.4000000), wk =   0.0166667
        k(   24) = (   0.0000000   0.2500000  -0.5000000), wk =   0.0083333
        k(   25) = (   0.0000000   0.3333333   0.0000000), wk =   0.0083333
        k(   26) = (   0.0000000   0.3333333   0.1000000), wk =   0.0166667
        k(   27) = (   0.0000000   0.3333333   0.2000000), wk =   0.0166667
        k(   28) = (   0.0000000   0.3333333   0.3000000), wk =   0.0166667
        k(   29) = (   0.0000000   0.3333333   0.4000000), wk =   0.0166667
        k(   30) = (   0.0000000   0.3333333  -0.5000000), wk =   0.0083333
        k(   31) = (   0.0000000   0.4166667   0.0000000), wk =   0.0083333
        k(   32) = (   0.0000000   0.4166667   0.1000000), wk =   0.0166667
        k(   33) = (   0.0000000   0.4166667   0.2000000), wk =   0.0166667
        k(   34) = (   0.0000000   0.4166667   0.3000000), wk =   0.0166667
        k(   35) = (   0.0000000   0.4166667   0.4000000), wk =   0.0166667
        k(   36) = (   0.0000000   0.4166667  -0.5000000), wk =   0.0083333
        k(   37) = (   0.0000000  -0.5000000   0.0000000), wk =   0.0041667
        k(   38) = (   0.0000000  -0.5000000   0.1000000), wk =   0.0083333
        k(   39) = (   0.0000000  -0.5000000   0.2000000), wk =   0.0083333
        k(   40) = (   0.0000000  -0.5000000   0.3000000), wk =   0.0083333
        k(   41) = (   0.0000000  -0.5000000   0.4000000), wk =   0.0083333
        k(   42) = (   0.0000000  -0.5000000  -0.5000000), wk =   0.0041667
        k(   43) = (   0.0833333   0.0833333   0.0000000), wk =   0.0083333
        k(   44) = (   0.0833333   0.0833333   0.1000000), wk =   0.0166667
        k(   45) = (   0.0833333   0.0833333   0.2000000), wk =   0.0166667
        k(   46) = (   0.0833333   0.0833333   0.3000000), wk =   0.0166667
        k(   47) = (   0.0833333   0.0833333   0.4000000), wk =   0.0166667
        k(   48) = (   0.0833333   0.0833333  -0.5000000), wk =   0.0083333
        k(   49) = (   0.0833333   0.1666667   0.0000000), wk =   0.0166667
        k(   50) = (   0.0833333   0.1666667   0.1000000), wk =   0.0333333
        k(   51) = (   0.0833333   0.1666667   0.2000000), wk =   0.0333333
        k(   52) = (   0.0833333   0.1666667   0.3000000), wk =   0.0333333
        k(   53) = (   0.0833333   0.1666667   0.4000000), wk =   0.0333333
        k(   54) = (   0.0833333   0.1666667  -0.5000000), wk =   0.0166667
        k(   55) = (   0.0833333   0.2500000   0.0000000), wk =   0.0166667
        k(   56) = (   0.0833333   0.2500000   0.1000000), wk =   0.0333333
        k(   57) = (   0.0833333   0.2500000   0.2000000), wk =   0.0333333
        k(   58) = (   0.0833333   0.2500000   0.3000000), wk =   0.0333333
        k(   59) = (   0.0833333   0.2500000   0.4000000), wk =   0.0333333
        k(   60) = (   0.0833333   0.2500000  -0.5000000), wk =   0.0166667
        k(   61) = (   0.0833333   0.3333333   0.0000000), wk =   0.0166667
        k(   62) = (   0.0833333   0.3333333   0.1000000), wk =   0.0333333
        k(   63) = (   0.0833333   0.3333333   0.2000000), wk =   0.0333333
        k(   64) = (   0.0833333   0.3333333   0.3000000), wk =   0.0333333
        k(   65) = (   0.0833333   0.3333333   0.4000000), wk =   0.0333333
        k(   66) = (   0.0833333   0.3333333  -0.5000000), wk =   0.0166667
        k(   67) = (   0.0833333   0.4166667   0.0000000), wk =   0.0166667
        k(   68) = (   0.0833333   0.4166667   0.1000000), wk =   0.0333333
        k(   69) = (   0.0833333   0.4166667   0.2000000), wk =   0.0333333
        k(   70) = (   0.0833333   0.4166667   0.3000000), wk =   0.0333333
        k(   71) = (   0.0833333   0.4166667   0.4000000), wk =   0.0333333
        k(   72) = (   0.0833333   0.4166667  -0.5000000), wk =   0.0166667
        k(   73) = (   0.1666667   0.1666667   0.0000000), wk =   0.0083333
        k(   74) = (   0.1666667   0.1666667   0.1000000), wk =   0.0166667
        k(   75) = (   0.1666667   0.1666667   0.2000000), wk =   0.0166667
        k(   76) = (   0.1666667   0.1666667   0.3000000), wk =   0.0166667
        k(   77) = (   0.1666667   0.1666667   0.4000000), wk =   0.0166667
        k(   78) = (   0.1666667   0.1666667  -0.5000000), wk =   0.0083333
        k(   79) = (   0.1666667   0.2500000   0.0000000), wk =   0.0166667
        k(   80) = (   0.1666667   0.2500000   0.1000000), wk =   0.0333333
        k(   81) = (   0.1666667   0.2500000   0.2000000), wk =   0.0333333
        k(   82) = (   0.1666667   0.2500000   0.3000000), wk =   0.0333333
        k(   83) = (   0.1666667   0.2500000   0.4000000), wk =   0.0333333
        k(   84) = (   0.1666667   0.2500000  -0.5000000), wk =   0.0166667
        k(   85) = (   0.1666667   0.3333333   0.0000000), wk =   0.0166667
        k(   86) = (   0.1666667   0.3333333   0.1000000), wk =   0.0333333
        k(   87) = (   0.1666667   0.3333333   0.2000000), wk =   0.0333333
        k(   88) = (   0.1666667   0.3333333   0.3000000), wk =   0.0333333
        k(   89) = (   0.1666667   0.3333333   0.4000000), wk =   0.0333333
        k(   90) = (   0.1666667   0.3333333  -0.5000000), wk =   0.0166667
        k(   91) = (   0.1666667   0.4166667   0.0000000), wk =   0.0083333
        k(   92) = (   0.1666667   0.4166667   0.1000000), wk =   0.0166667
        k(   93) = (   0.1666667   0.4166667   0.2000000), wk =   0.0166667
        k(   94) = (   0.1666667   0.4166667   0.3000000), wk =   0.0166667
        k(   95) = (   0.1666667   0.4166667   0.4000000), wk =   0.0166667
        k(   96) = (   0.1666667   0.4166667  -0.5000000), wk =   0.0083333
        k(   97) = (   0.2500000   0.2500000   0.0000000), wk =   0.0083333
        k(   98) = (   0.2500000   0.2500000   0.1000000), wk =   0.0166667
        k(   99) = (   0.2500000   0.2500000   0.2000000), wk =   0.0166667
        k(  100) = (   0.2500000   0.2500000   0.3000000), wk =   0.0166667
        k(  101) = (   0.2500000   0.2500000   0.4000000), wk =   0.0166667
        k(  102) = (   0.2500000   0.2500000  -0.5000000), wk =   0.0083333
        k(  103) = (   0.2500000   0.3333333   0.0000000), wk =   0.0166667
        k(  104) = (   0.2500000   0.3333333   0.1000000), wk =   0.0333333
        k(  105) = (   0.2500000   0.3333333   0.2000000), wk =   0.0333333
        k(  106) = (   0.2500000   0.3333333   0.3000000), wk =   0.0333333
        k(  107) = (   0.2500000   0.3333333   0.4000000), wk =   0.0333333
        k(  108) = (   0.2500000   0.3333333  -0.5000000), wk =   0.0166667
        k(  109) = (   0.3333333   0.3333333   0.0000000), wk =   0.0027778
        k(  110) = (   0.3333333   0.3333333   0.1000000), wk =   0.0055556
        k(  111) = (   0.3333333   0.3333333   0.2000000), wk =   0.0055556
        k(  112) = (   0.3333333   0.3333333   0.3000000), wk =   0.0055556
        k(  113) = (   0.3333333   0.3333333   0.4000000), wk =   0.0055556
        k(  114) = (   0.3333333   0.3333333  -0.5000000), wk =   0.0027778

     Dense  grid:   148217 G-vectors     FFT dimensions: (  90,  90,  45)

     Smooth grid:    80583 G-vectors     FFT dimensions: (  75,  75,  36)

     Dynamical RAM for                 wfc:       4.31 MB

     Dynamical RAM for     wfc (w. buffer):       4.31 MB

     Dynamical RAM for           str. fact:       3.39 MB

     Dynamical RAM for           local pot:       0.00 MB

     Dynamical RAM for          nlocal pot:      10.77 MB

     Dynamical RAM for                qrad:       4.57 MB

     Dynamical RAM for          rho,v,vnew:       7.66 MB

     Dynamical RAM for           G-vectors:       4.55 MB

     Dynamical RAM for          h,s,v(r/c):       0.57 MB

     Dynamical RAM for          <psi|beta>:       0.12 MB

     Dynamical RAM for                 psi:       8.61 MB

     Dynamical RAM for                hpsi:       8.61 MB

     Dynamical RAM for                spsi:       8.61 MB

     Dynamical RAM for      wfcinit/wfcrot:       8.69 MB

     Dynamical RAM for           addusdens:     217.12 MB

     Estimated static dynamical RAM per process >      46.87 MB

     Estimated max dynamical RAM per process >     263.99 MB

     Estimated total dynamical RAM >     527.98 MB

     Atomic positions and unit cell read from directory:
     ./tmp/Zr6CoTe2.save/


     Check: negative core charge=   -0.000007

     The potential is recalculated from file :
     ./tmp/Zr6CoTe2.save/charge-density


     negative rho (up, down):  3.714E-01 0.000E+00
     Starting wfcs are  102 randomized atomic wfcs

     Band Structure Calculation
     Davidson diagonalization with overlap

     Computing kpt #:     1  of   114
     total cpu time spent up to now is       19.0 secs

     Computing kpt #:     2  of   114
     total cpu time spent up to now is       36.0 secs

     Computing kpt #:     3  of   114
     total cpu time spent up to now is       52.3 secs

     Computing kpt #:     4  of   114
     c_bands:  1 eigenvalues not converged
     total cpu time spent up to now is       75.6 secs

     Computing kpt #:     5  of   114
     total cpu time spent up to now is       91.4 secs

     Computing kpt #:     6  of   114
     total cpu time spent up to now is      110.2 secs

     Computing kpt #:     7  of   114
     total cpu time spent up to now is      133.2 secs

     Computing kpt #:     8  of   114
     total cpu time spent up to now is      155.8 secs

     Computing kpt #:     9  of   114
     c_bands:  1 eigenvalues not converged
     total cpu time spent up to now is      182.6 secs

     Computing kpt #:    10  of   114
     total cpu time spent up to now is      208.9 secs

     Computing kpt #:    11  of   114
     total cpu time spent up to now is      226.2 secs

     Computing kpt #:    12  of   114
     total cpu time spent up to now is      245.5 secs

     Computing kpt #:    13  of   114
     total cpu time spent up to now is      268.3 secs

     Computing kpt #:    14  of   114
     total cpu time spent up to now is      293.2 secs

     Computing kpt #:    15  of   114
     total cpu time spent up to now is      324.5 secs

     Computing kpt #:    16  of   114
     total cpu time spent up to now is      352.2 secs

     Computing kpt #:    17  of   114
     total cpu time spent up to now is      376.1 secs

     Computing kpt #:    18  of   114
     total cpu time spent up to now is      401.7 secs

     Computing kpt #:    19  of   114
     total cpu time spent up to now is      434.0 secs

     Computing kpt #:    20  of   114
     total cpu time spent up to now is      466.8 secs

     Computing kpt #:    21  of   114
     total cpu time spent up to now is      497.8 secs

     Computing kpt #:    22  of   114
     total cpu time spent up to now is      525.1 secs

     Computing kpt #:    23  of   114
     total cpu time spent up to now is      550.3 secs

     Computing kpt #:    24  of   114
     total cpu time spent up to now is      571.9 secs

     Computing kpt #:    25  of   114
     total cpu time spent up to now is      595.9 secs

     Computing kpt #:    26  of   114
     c_bands:  1 eigenvalues not converged
     total cpu time spent up to now is      628.7 secs

     Computing kpt #:    27  of   114
     total cpu time spent up to now is      659.6 secs

     Computing kpt #:    28  of   114
     total cpu time spent up to now is      684.6 secs

     Computing kpt #:    29  of   114
     total cpu time spent up to now is      711.3 secs

     Computing kpt #:    30  of   114
     total cpu time spent up to now is      734.5 secs

     Computing kpt #:    31  of   114
     total cpu time spent up to now is      759.8 secs

     Computing kpt #:    32  of   114
     total cpu time spent up to now is      793.8 secs

     Computing kpt #:    33  of   114
     total cpu time spent up to now is      839.0 secs

     Computing kpt #:    34  of   114
     total cpu time spent up to now is      865.6 secs

     Computing kpt #:    35  of   114
     total cpu time spent up to now is      897.4 secs

     Computing kpt #:    36  of   114
     total cpu time spent up to now is      926.5 secs

     Computing kpt #:    37  of   114
     total cpu time spent up to now is      958.8 secs

     Computing kpt #:    38  of   114
     total cpu time spent up to now is      987.0 secs

     Computing kpt #:    39  of   114
     total cpu time spent up to now is     1012.5 secs

     Computing kpt #:    40  of   114
     total cpu time spent up to now is     1040.1 secs

     Computing kpt #:    41  of   114
     total cpu time spent up to now is     1069.6 secs

     Computing kpt #:    42  of   114
     total cpu time spent up to now is     1098.4 secs

     Computing kpt #:    43  of   114
     total cpu time spent up to now is     1123.2 secs

     Computing kpt #:    44  of   114
     total cpu time spent up to now is     1157.5 secs

     Computing kpt #:    45  of   114
     total cpu time spent up to now is     1191.9 secs

     Computing kpt #:    46  of   114
     total cpu time spent up to now is     1222.4 secs

     Computing kpt #:    47  of   114
     total cpu time spent up to now is     1250.4 secs

     Computing kpt #:    48  of   114
     total cpu time spent up to now is     1277.4 secs

     Computing kpt #:    49  of   114
     total cpu time spent up to now is     1311.9 secs

     Computing kpt #:    50  of   114
     total cpu time spent up to now is     1342.1 secs

     Computing kpt #:    51  of   114
     total cpu time spent up to now is     1375.6 secs

     Computing kpt #:    52  of   114
     total cpu time spent up to now is     1405.8 secs

     Computing kpt #:    53  of   114
     total cpu time spent up to now is     1426.7 secs

     Computing kpt #:    54  of   114
     total cpu time spent up to now is     1444.4 secs

     Computing kpt #:    55  of   114
     total cpu time spent up to now is     1471.0 secs

     Computing kpt #:    56  of   114
     total cpu time spent up to now is     1500.6 secs

     Computing kpt #:    57  of   114
     total cpu time spent up to now is     1527.3 secs

     Computing kpt #:    58  of   114
     total cpu time spent up to now is     1553.2 secs

     Computing kpt #:    59  of   114
     total cpu time spent up to now is     1575.4 secs

     Computing kpt #:    60  of   114
     total cpu time spent up to now is     1595.1 secs

     Computing kpt #:    61  of   114
     total cpu time spent up to now is     1618.8 secs

     Computing kpt #:    62  of   114
     c_bands:  1 eigenvalues not converged
     total cpu time spent up to now is     1651.4 secs

     Computing kpt #:    63  of   114
     total cpu time spent up to now is     1681.2 secs

     Computing kpt #:    64  of   114
     total cpu time spent up to now is     1700.5 secs

     Computing kpt #:    65  of   114
     total cpu time spent up to now is     1722.8 secs

     Computing kpt #:    66  of   114
     total cpu time spent up to now is     1749.7 secs

     Computing kpt #:    67  of   114
     total cpu time spent up to now is     1790.4 secs

     Computing kpt #:    68  of   114
     total cpu time spent up to now is     1828.6 secs

     Computing kpt #:    69  of   114
     total cpu time spent up to now is     1864.9 secs

     Computing kpt #:    70  of   114
     total cpu time spent up to now is     1897.8 secs

     Computing kpt #:    71  of   114
     total cpu time spent up to now is     1928.3 secs

     Computing kpt #:    72  of   114
     total cpu time spent up to now is     1957.9 secs

     Computing kpt #:    73  of   114
     c_bands:  1 eigenvalues not converged
     total cpu time spent up to now is     1998.2 secs

     Computing kpt #:    74  of   114
     total cpu time spent up to now is     2030.6 secs

     Computing kpt #:    75  of   114
     total cpu time spent up to now is     2067.3 secs

     Computing kpt #:    76  of   114
     total cpu time spent up to now is     2089.0 secs

     Computing kpt #:    77  of   114
     total cpu time spent up to now is     2112.7 secs

     Computing kpt #:    78  of   114
     total cpu time spent up to now is     2134.2 secs

     Computing kpt #:    79  of   114
     total cpu time spent up to now is     2159.2 secs

     Computing kpt #:    80  of   114
     total cpu time spent up to now is     2189.5 secs

     Computing kpt #:    81  of   114
     total cpu time spent up to now is     2213.5 secs

     Computing kpt #:    82  of   114
     total cpu time spent up to now is     2234.1 secs

     Computing kpt #:    83  of   114
     total cpu time spent up to now is     2257.9 secs

     Computing kpt #:    84  of   114
     total cpu time spent up to now is     2279.2 secs

     Computing kpt #:    85  of   114
     total cpu time spent up to now is     2306.0 secs

     Computing kpt #:    86  of   114
     total cpu time spent up to now is     2342.6 secs

     Computing kpt #:    87  of   114
     total cpu time spent up to now is     2377.3 secs

     Computing kpt #:    88  of   114
     total cpu time spent up to now is     2403.4 secs

     Computing kpt #:    89  of   114
     total cpu time spent up to now is     2429.6 secs

     Computing kpt #:    90  of   114
     total cpu time spent up to now is     2456.3 secs

     Computing kpt #:    91  of   114
     total cpu time spent up to now is     2489.6 secs

     Computing kpt #:    92  of   114
     total cpu time spent up to now is     2520.2 secs

     Computing kpt #:    93  of   114
     total cpu time spent up to now is     2552.1 secs

     Computing kpt #:    94  of   114
     total cpu time spent up to now is     2576.5 secs

     Computing kpt #:    95  of   114
     total cpu time spent up to now is     2601.7 secs

     Computing kpt #:    96  of   114
     total cpu time spent up to now is     2631.5 secs

     Computing kpt #:    97  of   114
     total cpu time spent up to now is     2660.9 secs

     Computing kpt #:    98  of   114
     total cpu time spent up to now is     2693.6 secs

     Computing kpt #:    99  of   114
     total cpu time spent up to now is     2720.8 secs

     Computing kpt #:   100  of   114
     total cpu time spent up to now is     2745.2 secs

     Computing kpt #:   101  of   114
     total cpu time spent up to now is     2769.9 secs

     Computing kpt #:   102  of   114
     total cpu time spent up to now is     2798.2 secs

     Computing kpt #:   103  of   114
     total cpu time spent up to now is     2829.1 secs

     Computing kpt #:   104  of   114
     total cpu time spent up to now is     2857.8 secs

     Computing kpt #:   105  of   114
     total cpu time spent up to now is     2888.6 secs

     Computing kpt #:   106  of   114
     total cpu time spent up to now is     2914.4 secs

     Computing kpt #:   107  of   114
     total cpu time spent up to now is     2938.6 secs

     Computing kpt #:   108  of   114
     total cpu time spent up to now is     2970.0 secs

     Computing kpt #:   109  of   114
     total cpu time spent up to now is     3001.1 secs

     Computing kpt #:   110  of   114
     total cpu time spent up to now is     3027.2 secs

     Computing kpt #:   111  of   114
     total cpu time spent up to now is     3053.2 secs

     Computing kpt #:   112  of   114
     total cpu time spent up to now is     3078.0 secs

     Computing kpt #:   113  of   114
     total cpu time spent up to now is     3103.8 secs

     Computing kpt #:   114  of   114
     total cpu time spent up to now is     3136.8 secs

     ethr =  1.08E-09,  avg # of iterations = 53.9

     total cpu time spent up to now is     3136.8 secs

     End of band structure calculation

          k = 0.0000 0.0000 0.0000 ( 10025 PWs)   bands (ev):

   -34.9586 -34.9498 -34.9498 -34.5146 -34.4836 -34.4836 -13.2817 -13.1641
   -13.1641 -13.0342 -12.9791 -12.9791 -12.9744 -12.9337 -12.9337 -12.6823
   -12.6671 -12.6671 -12.4897 -12.4143 -12.4143 -12.3871 -12.3859 -12.3859
     0.8060   1.4544   8.1743   8.1743   9.4734   9.4734   9.5544  11.0326
    11.0781  11.6141  11.6141  11.9196  11.9196  12.0296  12.1916  12.1951
    12.1951  13.5671  13.5671  14.4853  14.4853  14.5556  14.6328  14.6328
    14.7492  15.0905  15.0905  15.2693  15.2693  15.4430  15.6491  15.8767

     occupation numbers 
     1.0000   1.0000   1.0000   1.0000   1.0000   1.0000   1.0000   1.0000
     1.0000   1.0000   1.0000   1.0000   1.0000   1.0000   1.0000   1.0000
     1.0000   1.0000   1.0000   1.0000   1.0000   1.0000   1.0000   1.0000
     1.0000   1.0000   1.0000   1.0000   1.0000   1.0000   1.0000   1.0000
     1.0000   1.0000   1.0000   1.0000   1.0000   1.0000   1.0000   1.0000
     1.0000   1.0000   1.0000   0.0004   0.0004   0.0000   0.0000   0.0000
     0.0000   0.0000   0.0000   0.0000   0.0000   0.0000   0.0000   0.0000

          k = 0.0000 0.0000 0.2141 ( 10079 PWs)   bands (ev):

   -34.9571 -34.9488 -34.9488 -34.5142 -34.4827 -34.4827 -13.2738 -13.1627
   -13.1627 -13.0369 -12.9885 -12.9885 -12.9768 -12.9481 -12.9481 -12.6887
   -12.6552 -12.6552 -12.4931 -12.4298 -12.4298 -12.4058 -12.3840 -12.3840
     0.8943   1.4841   8.2833   8.2833   9.4493   9.4493   9.6824  10.7749
    10.8869  11.5414  11.7012  11.7012  11.9336  11.9336  12.2479  12.2479
    12.3892  13.4770  13.4770  14.2250  14.2250  14.4695  14.5378  14.5378
    14.6808  15.0724  15.0724  15.2934  15.5701  15.6577  15.6577  15.9433

     occupation numbers 
     1.0000   1.0000   1.0000   1.0000   1.0000   1.0000   1.0000   1.0000
     1.0000   1.0000   1.0000   1.0000   1.0000   1.0000   1.0000   1.0000
     1.0000   1.0000   1.0000   1.0000   1.0000   1.0000   1.0000   1.0000
     1.0000   1.0000   1.0000   1.0000   1.0000   1.0000   1.0000   1.0000
     1.0000   1.0000   1.0000   1.0000   1.0000   1.0000   1.0000   1.0000
     1.0000   1.0000   1.0000   0.2558   0.2558   0.0007   0.0000   0.0000
     0.0000   0.0000   0.0000   0.0000   0.0000   0.0000   0.0000   0.0000

          k = 0.0000 0.0000 0.4281 ( 10121 PWs)   bands (ev):

   -34.9531 -34.9462 -34.9462 -34.5129 -34.4805 -34.4805 -13.2528 -13.1597
   -13.1597 -13.0611 -13.0444 -13.0444 -12.9635 -12.9458 -12.9458 -12.7081
   -12.6330 -12.6330 -12.5024 -12.4575 -12.4575 -12.4536 -12.3906 -12.3906
     1.1421   1.5651   8.5760   8.5760   9.3852   9.3852   9.8178  10.0899
    10.1047  11.5588  11.8676  11.8676  11.9416  11.9416  12.4785  12.4785
    12.5777  13.3466  13.3466  13.7866  13.7866  13.9865  14.2340  14.2340
    14.6092  14.9577  15.2539  15.2539  15.4767  15.9764  15.9764  16.3329

     occupation numbers 
     1.0000   1.0000   1.0000   1.0000   1.0000   1.0000   1.0000   1.0000
     1.0000   1.0000   1.0000   1.0000   1.0000   1.0000   1.0000   1.0000
     1.0000   1.0000   1.0000   1.0000   1.0000   1.0000   1.0000   1.0000
     1.0000   1.0000   1.0000   1.0000   1.0000   1.0000   1.0000   1.0000
     1.0000   1.0000   1.0000   1.0000   1.0000   1.0000   1.0000   1.0000
     1.0000   1.0000   1.0000   1.0000   1.0000   0.9658   0.2265   0.2265
     0.0000   0.0000   0.0000   0.0000   0.0000   0.0000   0.0000   0.0000

          k = 0.0000 0.0000 0.6422 ( 10091 PWs)   bands (ev):

   -34.9482 -34.9430 -34.9430 -34.5113 -34.4777 -34.4777 -13.2258 -13.1581
   -13.1581 -13.1148 -13.1148 -13.1025 -12.9318 -12.9318 -12.9288 -12.7395
   -12.6162 -12.6162 -12.5149 -12.5108 -12.4782 -12.4782 -12.4085 -12.4085
     1.4913   1.6727   8.6970   8.9008   8.9008   9.3770   9.3803   9.3803
    10.5788  11.8624  11.8673  11.8673  11.9668  11.9668  12.5796  12.8556
    12.8556  13.2941  13.2941  13.4415  13.5356  13.5356  13.9826  13.9826
    14.6117  14.7845  15.1065  15.1065  15.4365  16.1143  16.1143  16.8817

     occupation numbers 
     1.0000   1.0000   1.0000   1.0000   1.0000   1.0000   1.0000   1.0000
     1.0000   1.0000   1.0000   1.0000   1.0000   1.0000   1.0000   1.0000
     1.0000   1.0000   1.0000   1.0000   1.0000   1.0000   1.0000   1.0000
     1.0000   1.0000   1.0000   1.0000   1.0000   1.0000   1.0000   1.0000
     1.0000   1.0000   1.0000   1.0000   1.0000   1.0000   1.0000   1.0000
     1.0000   1.0000   1.0000   1.0000   1.0000   1.0000   0.9688   0.9688
     0.0000   0.0000   0.0000   0.0000   0.0000   0.0000   0.0000   0.0000

          k = 0.0000 0.0000 0.8563 ( 10043 PWs)   bands (ev):

   -34.9442 -34.9404 -34.9404 -34.5101 -34.4755 -34.4755 -13.2030 -13.1734
   -13.1734 -13.1529 -13.1529 -13.1378 -12.9201 -12.9201 -12.8871 -12.7772
   -12.6078 -12.6078 -12.5557 -12.5259 -12.4834 -12.4834 -12.4315 -12.4315
     1.7668   1.8255   7.8331   8.8657   8.9687   8.9687   9.6455   9.6455
    11.0830  11.6562  11.6562  12.0289  12.0289  12.2086  12.4679  12.9762
    12.9922  12.9922  13.2728  13.2728  13.7523  13.7523  13.9384  13.9384
    14.3678  14.6224  14.6427  14.6427  16.0899  16.2951  16.2951  16.5600

     occupation numbers 
     1.0000   1.0000   1.0000   1.0000   1.0000   1.0000   1.0000   1.0000
     1.0000   1.0000   1.0000   1.0000   1.0000   1.0000   1.0000   1.0000
     1.0000   1.0000   1.0000   1.0000   1.0000   1.0000   1.0000   1.0000
     1.0000   1.0000   1.0000   1.0000   1.0000   1.0000   1.0000   1.0000
     1.0000   1.0000   1.0000   1.0000   1.0000   1.0000   1.0000   1.0000
     1.0000   1.0000   1.0000   1.0000   1.0000   1.0000   0.9899   0.9899
     0.0161   0.0000   0.0000   0.0000   0.0000   0.0000   0.0000   0.0000

          k = 0.0000 0.0000-1.0704 ( 10072 PWs)   bands (ev):

   -34.9427 -34.9394 -34.9394 -34.5096 -34.4746 -34.4746 -13.1940 -13.1917
   -13.1917 -13.1546 -13.1546 -13.1513 -12.9157 -12.9157 -12.8608 -12.8018
   -12.6052 -12.6052 -12.5727 -12.5303 -12.4804 -12.4804 -12.4445 -12.4445
     1.8047   1.9710   7.5055   8.6812   8.9509   8.9509   9.8293   9.8293
    11.3117  11.5185  11.5185  12.0621  12.0621  12.4141  12.5715  12.5731
    12.9256  12.9256  13.4062  13.4062  13.7396  13.7396  14.1494  14.1494
    14.2811  14.3586  14.3586  14.4776  16.3272  16.3272  16.4471  16.6987

     occupation numbers 
     1.0000   1.0000   1.0000   1.0000   1.0000   1.0000   1.0000   1.0000
     1.0000   1.0000   1.0000   1.0000   1.0000   1.0000   1.0000   1.0000
     1.0000   1.0000   1.0000   1.0000   1.0000   1.0000   1.0000   1.0000
     1.0000   1.0000   1.0000   1.0000   1.0000   1.0000   1.0000   1.0000
     1.0000   1.0000   1.0000   1.0000   1.0000   1.0000   1.0000   1.0000
     1.0000   1.0000   1.0000   1.0000   1.0000   1.0000   0.5513   0.5513
     0.1076   0.0204   0.0204   0.0005   0.0000   0.0000   0.0000   0.0000

          k = 0.0000 0.0962 0.0000 ( 10075 PWs)   bands (ev):

   -34.9584 -34.9499 -34.9498 -34.5149 -34.4835 -34.4834 -13.2797 -13.1665
   -13.1656 -13.0378 -12.9795 -12.9737 -12.9705 -12.9342 -12.9340 -12.7130
   -12.6646 -12.6362 -12.4905 -12.4184 -12.4149 -12.3914 -12.3856 -12.3820
     0.8162   1.4442   8.1550   8.1839   9.2664   9.4752   9.7694  11.0407
    11.0917  11.6108  11.6391  11.9361  11.9424  12.0516  12.1120  12.1950
    12.2565  13.4875  13.5067  14.4199  14.4815  14.5738  14.6770  14.6787
    14.7815  15.0876  15.1768  15.2583  15.2725  15.4520  15.6254  15.8283

     occupation numbers 
     1.0000   1.0000   1.0000   1.0000   1.0000   1.0000   1.0000   1.0000
     1.0000   1.0000   1.0000   1.0000   1.0000   1.0000   1.0000   1.0000
     1.0000   1.0000   1.0000   1.0000   1.0000   1.0000   1.0000   1.0000
     1.0000   1.0000   1.0000   1.0000   1.0000   1.0000   1.0000   1.0000
     1.0000   1.0000   1.0000   1.0000   1.0000   1.0000   1.0000   1.0000
     1.0000   1.0000   1.0000   0.0037   0.0004   0.0000   0.0000   0.0000
     0.0000   0.0000   0.0000   0.0000   0.0000   0.0000   0.0000   0.0000

          k = 0.0000 0.0962 0.2141 ( 10080 PWs)   bands (ev):

   -34.9569 -34.9489 -34.9488 -34.5144 -34.4827 -34.4826 -13.2719 -13.1649
   -13.1640 -13.0369 -12.9925 -12.9886 -12.9717 -12.9485 -12.9447 -12.7100
   -12.6532 -12.6336 -12.4938 -12.4345 -12.4298 -12.4036 -12.3853 -12.3843
     0.9038   1.4749   8.2651   8.2909   9.2955   9.4524   9.8440  10.7841
    10.8955  11.5319  11.6989  11.7255  11.9442  11.9515  12.2367  12.2522
    12.4197  13.4305  13.4354  14.1977  14.2344  14.4679  14.5111  14.5342
    14.6594  15.0952  15.2057  15.3050  15.5506  15.6422  15.6593  15.9057

     occupation numbers 
     1.0000   1.0000   1.0000   1.0000   1.0000   1.0000   1.0000   1.0000
     1.0000   1.0000   1.0000   1.0000   1.0000   1.0000   1.0000   1.0000
     1.0000   1.0000   1.0000   1.0000   1.0000   1.0000   1.0000   1.0000
     1.0000   1.0000   1.0000   1.0000   1.0000   1.0000   1.0000   1.0000
     1.0000   1.0000   1.0000   1.0000   1.0000   1.0000   1.0000   1.0000
     1.0000   1.0000   1.0000   0.3549   0.2253   0.0007   0.0001   0.0001
     0.0000   0.0000   0.0000   0.0000   0.0000   0.0000   0.0000   0.0000

          k = 0.0000 0.0962 0.4281 ( 10087 PWs)   bands (ev):

   -34.9530 -34.9463 -34.9462 -34.5130 -34.4804 -34.4804 -13.2513 -13.1615
   -13.1606 -13.0604 -13.0441 -13.0420 -12.9730 -12.9460 -12.9370 -12.7160
   -12.6320 -12.6250 -12.5029 -12.4666 -12.4569 -12.4449 -12.3921 -12.3915
     1.1492   1.5587   8.5604   8.5774   9.3015   9.3893   9.8585  10.0951
    10.1600  11.5584  11.8632  11.8838  11.9468  11.9506  12.4716  12.4905
    12.6203  13.3015  13.3125  13.7930  13.8065  14.0041  14.1660  14.2123
    14.6277  14.9590  15.2853  15.3317  15.4652  15.9454  15.9699  16.3135

     occupation numbers 
     1.0000   1.0000   1.0000   1.0000   1.0000   1.0000   1.0000   1.0000
     1.0000   1.0000   1.0000   1.0000   1.0000   1.0000   1.0000   1.0000
     1.0000   1.0000   1.0000   1.0000   1.0000   1.0000   1.0000   1.0000
     1.0000   1.0000   1.0000   1.0000   1.0000   1.0000   1.0000   1.0000
     1.0000   1.0000   1.0000   1.0000   1.0000   1.0000   1.0000   1.0000
     1.0000   1.0000   1.0000   0.9999   0.9999   0.9494   0.4827   0.3000
     0.0000   0.0000   0.0000   0.0000   0.0000   0.0000   0.0000   0.0000

          k = 0.0000 0.0962 0.6422 ( 10096 PWs)   bands (ev):

   -34.9481 -34.9430 -34.9430 -34.5114 -34.4777 -34.4777 -13.2250 -13.1595
   -13.1582 -13.1183 -13.1143 -13.0964 -12.9406 -12.9315 -12.9229 -12.7404
   -12.6167 -12.6157 -12.5150 -12.5124 -12.4771 -12.4745 -12.4098 -12.4095
     1.4949   1.6700   8.6849   8.8968   8.9059   9.2964   9.3564   9.4659
    10.6079  11.8585  11.8795  11.8811  11.9649  11.9696  12.6000  12.8295
    12.8665  13.2494  13.2623  13.4729  13.5610  13.5713  13.9569  13.9610
    14.6025  14.7264  15.1545  15.2175  15.4390  16.1056  16.1100  16.7822

     occupation numbers 
     1.0000   1.0000   1.0000   1.0000   1.0000   1.0000   1.0000   1.0000
     1.0000   1.0000   1.0000   1.0000   1.0000   1.0000   1.0000   1.0000
     1.0000   1.0000   1.0000   1.0000   1.0000   1.0000   1.0000   1.0000
     1.0000   1.0000   1.0000   1.0000   1.0000   1.0000   1.0000   1.0000
     1.0000   1.0000   1.0000   1.0000   1.0000   1.0000   1.0000   1.0000
     1.0000   1.0000   1.0000   1.0000   1.0000   1.0000   0.9834   0.9816
     0.0000   0.0000   0.0000   0.0000   0.0000   0.0000   0.0000   0.0000

          k = 0.0000 0.0962 0.8563 ( 10062 PWs)   bands (ev):

   -34.9442 -34.9404 -34.9404 -34.5101 -34.4755 -34.4755 -13.2032 -13.1754
   -13.1730 -13.1538 -13.1519 -13.1337 -12.9238 -12.9192 -12.8874 -12.7763
   -12.6104 -12.6094 -12.5541 -12.5257 -12.4820 -12.4804 -12.4328 -12.4320
     1.7673   1.8251   7.8422   8.8353   8.9672   8.9829   9.6300   9.6505
    11.0780  11.6781  11.6803  12.0240  12.0288  12.2130  12.4631  12.8959
    12.9931  13.0410  13.2425  13.3201  13.7104  13.7206  13.9480  13.9671
    14.3509  14.4710  14.7321  14.8548  16.0790  16.2904  16.3009  16.5526

     occupation numbers 
     1.0000   1.0000   1.0000   1.0000   1.0000   1.0000   1.0000   1.0000
     1.0000   1.0000   1.0000   1.0000   1.0000   1.0000   1.0000   1.0000
     1.0000   1.0000   1.0000   1.0000   1.0000   1.0000   1.0000   1.0000
     1.0000   1.0000   1.0000   1.0000   1.0000   1.0000   1.0000   1.0000
     1.0000   1.0000   1.0000   1.0000   1.0000   1.0000   1.0000   1.0000
     1.0000   1.0000   1.0000   1.0000   1.0000   1.0000   0.9869   0.9785
     0.0247   0.0007   0.0000   0.0000   0.0000   0.0000   0.0000   0.0000

          k = 0.0000 0.0962-1.0704 ( 10066 PWs)   bands (ev):

   -34.9427 -34.9394 -34.9394 -34.5096 -34.4746 -34.4746 -13.1944 -13.1936
   -13.1916 -13.1552 -13.1530 -13.1478 -12.9213 -12.9145 -12.8576 -12.8030
   -12.6086 -12.6072 -12.5702 -12.5300 -12.4789 -12.4771 -12.4460 -12.4451
     1.8065   1.9687   7.5183   8.6547   8.9508   8.9664   9.8151   9.8212
    11.2789  11.5478  11.5611  12.0554  12.0624  12.4070  12.5612  12.5787
    12.9241  12.9406  13.3687  13.4093  13.6661  13.6961  14.1820  14.2108
    14.2363  14.2543  14.4867  14.6400  16.3249  16.3517  16.4429  16.6708

     occupation numbers 
     1.0000   1.0000   1.0000   1.0000   1.0000   1.0000   1.0000   1.0000
     1.0000   1.0000   1.0000   1.0000   1.0000   1.0000   1.0000   1.0000
     1.0000   1.0000   1.0000   1.0000   1.0000   1.0000   1.0000   1.0000
     1.0000   1.0000   1.0000   1.0000   1.0000   1.0000   1.0000   1.0000
     1.0000   1.0000   1.0000   1.0000   1.0000   1.0000   1.0000   1.0000
     1.0000   1.0000   1.0000   1.0000   1.0000   1.0000   0.4170   0.3055
     0.2195   0.1682   0.0004   0.0000   0.0000   0.0000   0.0000   0.0000

          k = 0.0000 0.1925 0.0000 ( 10061 PWs)   bands (ev):

   -34.9579 -34.9502 -34.9500 -34.5155 -34.4834 -34.4829 -13.2738 -13.1730
   -13.1698 -13.0428 -12.9811 -12.9713 -12.9521 -12.9357 -12.9349 -12.7471
   -12.6569 -12.6013 -12.4926 -12.4302 -12.4168 -12.3962 -12.3847 -12.3781
     0.8460   1.4148   8.1037   8.1991   9.0748   9.4790   9.9936  11.0619
    11.1316  11.6004  11.6959  11.9714  12.0201  12.0206  12.1228  12.1951
    12.2936  13.3150  13.3597  14.3017  14.4792  14.6037  14.7555  14.7751
    14.8651  15.0829  15.2007  15.2986  15.3384  15.4813  15.5763  15.7181

     occupation numbers 
     1.0000   1.0000   1.0000   1.0000   1.0000   1.0000   1.0000   1.0000
     1.0000   1.0000   1.0000   1.0000   1.0000   1.0000   1.0000   1.0000
     1.0000   1.0000   1.0000   1.0000   1.0000   1.0000   1.0000   1.0000
     1.0000   1.0000   1.0000   1.0000   1.0000   1.0000   1.0000   1.0000
     1.0000   1.0000   1.0000   1.0000   1.0000   1.0000   1.0000   1.0000
     1.0000   1.0000   1.0000   0.0730   0.0005   0.0000   0.0000   0.0000
     0.0000   0.0000   0.0000   0.0000   0.0000   0.0000   0.0000   0.0000

          k = 0.0000 0.1925 0.2141 ( 10090 PWs)   bands (ev):

   -34.9564 -34.9492 -34.9490 -34.5149 -34.4825 -34.4822 -13.2665 -13.1710
   -13.1677 -13.0365 -12.9953 -12.9893 -12.9676 -12.9499 -12.9340 -12.7394
   -12.6469 -12.6031 -12.4956 -12.4454 -12.4301 -12.4008 -12.3879 -12.3852
     0.9312   1.4485   8.2168   8.2996   9.1139   9.4597  10.0587  10.8102
    10.9191  11.5022  11.6951  11.7839  11.9640  12.0052  12.2291  12.2710
    12.4832  13.3112  13.3518  14.0900  14.2436  14.3601  14.5250  14.5907
    14.7141  15.1314  15.3559  15.4072  15.5037  15.6007  15.6627  15.8242

     occupation numbers 
     1.0000   1.0000   1.0000   1.0000   1.0000   1.0000   1.0000   1.0000
     1.0000   1.0000   1.0000   1.0000   1.0000   1.0000   1.0000   1.0000
     1.0000   1.0000   1.0000   1.0000   1.0000   1.0000   1.0000   1.0000
     1.0000   1.0000   1.0000   1.0000   1.0000   1.0000   1.0000   1.0000
     1.0000   1.0000   1.0000   1.0000   1.0000   1.0000   1.0000   1.0000
     1.0000   1.0000   1.0000   0.7724   0.1977   0.0197   0.0001   0.0000
     0.0000   0.0000   0.0000   0.0000   0.0000   0.0000   0.0000   0.0000

          k = 0.0000 0.1925 0.4281 ( 10082 PWs)   bands (ev):

   -34.9526 -34.9465 -34.9463 -34.5134 -34.4804 -34.4801 -13.2470 -13.1665
   -13.1628 -13.0585 -13.0436 -13.0351 -12.9870 -12.9467 -12.9251 -12.7326
   -12.6292 -12.6081 -12.5041 -12.4760 -12.4553 -12.4358 -12.3965 -12.3940
     1.1699   1.5403   8.5198   8.5664   9.1660   9.3993   9.9111  10.1072
    10.2934  11.5552  11.8556  11.9218  11.9605  11.9763  12.4620  12.5285
    12.7224  13.1958  13.2464  13.7855  13.8263  13.9449  14.1539  14.1693
    14.6580  14.9765  15.3505  15.4097  15.5217  15.8755  15.9497  16.2693

     occupation numbers 
     1.0000   1.0000   1.0000   1.0000   1.0000   1.0000   1.0000   1.0000
     1.0000   1.0000   1.0000   1.0000   1.0000   1.0000   1.0000   1.0000
     1.0000   1.0000   1.0000   1.0000   1.0000   1.0000   1.0000   1.0000
     1.0000   1.0000   1.0000   1.0000   1.0000   1.0000   1.0000   1.0000
     1.0000   1.0000   1.0000   1.0000   1.0000   1.0000   1.0000   1.0000
     1.0000   1.0000   1.0000   1.0000   0.9998   0.9879   0.5331   0.4693
     0.0000   0.0000   0.0000   0.0000   0.0000   0.0000   0.0000   0.0000

          k = 0.0000 0.1925 0.6422 ( 10079 PWs)   bands (ev):

   -34.9478 -34.9432 -34.9431 -34.5116 -34.4776 -34.4775 -13.2228 -13.1632
   -13.1586 -13.1215 -13.1132 -13.0863 -12.9508 -12.9307 -12.9194 -12.7439
   -12.6181 -12.6140 -12.5153 -12.5133 -12.4742 -12.4667 -12.4139 -12.4119
     1.5051   1.6623   8.6526   8.8704   8.9169   9.2425   9.3110   9.5423
    10.6753  11.8537  11.9023  11.9147  11.9649  11.9843  12.6420  12.7745
    12.9020  13.1585  13.2013  13.5309  13.5864  13.6413  13.8905  13.9367
    14.5926  14.6762  15.2420  15.4177  15.4640  16.0791  16.0890  16.5743

     occupation numbers 
     1.0000   1.0000   1.0000   1.0000   1.0000   1.0000   1.0000   1.0000
     1.0000   1.0000   1.0000   1.0000   1.0000   1.0000   1.0000   1.0000
     1.0000   1.0000   1.0000   1.0000   1.0000   1.0000   1.0000   1.0000
     1.0000   1.0000   1.0000   1.0000   1.0000   1.0000   1.0000   1.0000
     1.0000   1.0000   1.0000   1.0000   1.0000   1.0000   1.0000   1.0000
     1.0000   1.0000   1.0000   1.0000   1.0000   1.0000   0.9976   0.9904
     0.0000   0.0000   0.0000   0.0000   0.0000   0.0000   0.0000   0.0000

          k = 0.0000 0.1925 0.8563 ( 10072 PWs)   bands (ev):

   -34.9440 -34.9406 -34.9404 -34.5101 -34.4755 -34.4754 -13.2035 -13.1787
   -13.1726 -13.1551 -13.1494 -13.1257 -12.9328 -12.9168 -12.8880 -12.7750
   -12.6179 -12.6133 -12.5487 -12.5252 -12.4787 -12.4729 -12.4369 -12.4332
     1.7690   1.8239   7.8695   8.7524   8.9675   9.0216   9.5877   9.6585
    11.0630  11.7365  11.7503  12.0089  12.0289  12.2255  12.4459  12.8190
    12.9917  13.0694  13.1717  13.3995  13.6378  13.6788  13.9020  13.9643
    14.4065  14.4491  14.9064  15.0929  16.0562  16.2639  16.3161  16.5323

     occupation numbers 
     1.0000   1.0000   1.0000   1.0000   1.0000   1.0000   1.0000   1.0000
     1.0000   1.0000   1.0000   1.0000   1.0000   1.0000   1.0000   1.0000
     1.0000   1.0000   1.0000   1.0000   1.0000   1.0000   1.0000   1.0000
     1.0000   1.0000   1.0000   1.0000   1.0000   1.0000   1.0000   1.0000
     1.0000   1.0000   1.0000   1.0000   1.0000   1.0000   1.0000   1.0000
     1.0000   1.0000   1.0000   1.0000   1.0000   1.0000   0.9965   0.9800
     0.0055   0.0014   0.0000   0.0000   0.0000   0.0000   0.0000   0.0000

          k = 0.0000 0.1925-1.0704 ( 10070 PWs)   bands (ev):

   -34.9425 -34.9396 -34.9394 -34.5096 -34.4746 -34.4746 -13.1969 -13.1951
   -13.1914 -13.1569 -13.1489 -13.1405 -12.9340 -12.9111 -12.8516 -12.8056
   -12.6189 -12.6116 -12.5629 -12.5291 -12.4754 -12.4684 -12.4503 -12.4466
     1.8121   1.9619   7.5558   8.5806   8.9530   9.0114   9.7737   9.7958
    11.2145  11.6283  11.6570  12.0358  12.0644  12.3853  12.5325  12.6030
    12.9189  12.9751  13.2743  13.4189  13.5330  13.6470  14.0327  14.0605
    14.4061  14.4755  14.6830  14.8614  16.3152  16.4065  16.4226  16.6015

     occupation numbers 
     1.0000   1.0000   1.0000   1.0000   1.0000   1.0000   1.0000   1.0000
     1.0000   1.0000   1.0000   1.0000   1.0000   1.0000   1.0000   1.0000
     1.0000   1.0000   1.0000   1.0000   1.0000   1.0000   1.0000   1.0000
     1.0000   1.0000   1.0000   1.0000   1.0000   1.0000   1.0000   1.0000
     1.0000   1.0000   1.0000   1.0000   1.0000   1.0000   1.0000   1.0000
     1.0000   1.0000   1.0000   1.0000   1.0000   1.0000   0.9102   0.8539
     0.0056   0.0006   0.0000   0.0000   0.0000   0.0000   0.0000   0.0000

          k = 0.0000 0.2887 0.0000 ( 10079 PWs)   bands (ev):

   -34.9571 -34.9507 -34.9502 -34.5163 -34.4832 -34.4823 -13.2647 -13.1824
   -13.1758 -13.0437 -12.9848 -12.9677 -12.9383 -12.9360 -12.9328 -12.7750
   -12.6440 -12.5716 -12.4954 -12.4474 -12.4203 -12.4004 -12.3834 -12.3751
     0.8920   1.3695   8.0357   8.1887   8.9773   9.4840  10.1651  11.0908
    11.1940  11.5871  11.7445  11.9238  12.0129  12.1542  12.1967  12.2415
    12.3016  13.1382  13.1838  14.2062  14.4861  14.6129  14.7964  14.8790
    14.9693  15.0799  15.0934  15.3160  15.4517  15.4823  15.5699  15.6204

     occupation numbers 
     1.0000   1.0000   1.0000   1.0000   1.0000   1.0000   1.0000   1.0000
     1.0000   1.0000   1.0000   1.0000   1.0000   1.0000   1.0000   1.0000
     1.0000   1.0000   1.0000   1.0000   1.0000   1.0000   1.0000   1.0000
     1.0000   1.0000   1.0000   1.0000   1.0000   1.0000   1.0000   1.0000
     1.0000   1.0000   1.0000   1.0000   1.0000   1.0000   1.0000   1.0000
     1.0000   1.0000   1.0000   0.3224   0.0004   0.0000   0.0000   0.0000
     0.0000   0.0000   0.0000   0.0000   0.0000   0.0000   0.0000   0.0000

          k = 0.0000 0.2887 0.2141 ( 10096 PWs)   bands (ev):

   -34.9557 -34.9497 -34.9492 -34.5157 -34.4824 -34.4816 -13.2580 -13.1798
   -13.1729 -13.0342 -12.9942 -12.9911 -12.9670 -12.9527 -12.9207 -12.7642
   -12.6366 -12.5766 -12.4982 -12.4588 -12.4313 -12.4018 -12.3883 -12.3863
     0.9736   1.4077   8.1531   8.2783   9.0203   9.4691  10.2287  10.8473
    10.9565  11.4530  11.6942  11.8445  11.9805  12.0707  12.2371  12.3280
    12.5506  13.1585  13.2840  13.9415  14.2266  14.3187  14.5133  14.6714
    14.8010  15.1366  15.4274  15.4560  15.5101  15.5513  15.6358  15.8226

     occupation numbers 
     1.0000   1.0000   1.0000   1.0000   1.0000   1.0000   1.0000   1.0000
     1.0000   1.0000   1.0000   1.0000   1.0000   1.0000   1.0000   1.0000
     1.0000   1.0000   1.0000   1.0000   1.0000   1.0000   1.0000   1.0000
     1.0000   1.0000   1.0000   1.0000   1.0000   1.0000   1.0000   1.0000
     1.0000   1.0000   1.0000   1.0000   1.0000   1.0000   1.0000   1.0000
     1.0000   1.0000   1.0000   0.9890   0.2506   0.0515   0.0001   0.0000
     0.0000   0.0000   0.0000   0.0000   0.0000   0.0000   0.0000   0.0000

          k = 0.0000 0.2887 0.4281 ( 10093 PWs)   bands (ev):

   -34.9520 -34.9470 -34.9465 -34.5140 -34.4802 -34.4797 -13.2405 -13.1738
   -13.1659 -13.0556 -13.0432 -13.0256 -12.9985 -12.9484 -12.9164 -12.7498
   -12.6251 -12.5911 -12.5057 -12.4818 -12.4534 -12.4286 -12.4033 -12.3977
     1.2016   1.5118   8.4681   8.5126   9.0937   9.4104   9.9561  10.1196
    10.4335  11.5473  11.8530  11.9491  11.9914  12.0109  12.4527  12.5937
    12.8267  13.0713  13.2283  13.6404  13.8171  13.9335  14.1112  14.2569
    14.6727  15.0150  15.3427  15.4692  15.6164  15.7897  15.9293  16.1984

     occupation numbers 
     1.0000   1.0000   1.0000   1.0000   1.0000   1.0000   1.0000   1.0000
     1.0000   1.0000   1.0000   1.0000   1.0000   1.0000   1.0000   1.0000
     1.0000   1.0000   1.0000   1.0000   1.0000   1.0000   1.0000   1.0000
     1.0000   1.0000   1.0000   1.0000   1.0000   1.0000   1.0000   1.0000
     1.0000   1.0000   1.0000   1.0000   1.0000   1.0000   1.0000   1.0000
     1.0000   1.0000   1.0000   1.0000   0.9998   0.9912   0.7006   0.1615
     0.0000   0.0000   0.0000   0.0000   0.0000   0.0000   0.0000   0.0000

          k = 0.0000 0.2887 0.6422 ( 10088 PWs)   bands (ev):

   -34.9474 -34.9436 -34.9432 -34.5119 -34.4776 -34.4773 -13.2195 -13.1683
   -13.1590 -13.1217 -13.1121 -13.0782 -12.9576 -12.9302 -12.9186 -12.7512
   -12.6202 -12.6113 -12.5157 -12.5093 -12.4705 -12.4584 -12.4210 -12.4152
     1.5204   1.6503   8.6058   8.8189   8.9163   9.2293   9.2890   9.5999
    10.7462  11.8440  11.9114  11.9623  11.9812  12.0195  12.6621  12.7240
    12.9522  13.0910  13.1410  13.5311  13.5595  13.7024  13.8298  14.0027
    14.5757  14.7107  15.3013  15.4878  15.6232  15.9972  16.0878  16.3889

     occupation numbers 
     1.0000   1.0000   1.0000   1.0000   1.0000   1.0000   1.0000   1.0000
     1.0000   1.0000   1.0000   1.0000   1.0000   1.0000   1.0000   1.0000
     1.0000   1.0000   1.0000   1.0000   1.0000   1.0000   1.0000   1.0000
     1.0000   1.0000   1.0000   1.0000   1.0000   1.0000   1.0000   1.0000
     1.0000   1.0000   1.0000   1.0000   1.0000   1.0000   1.0000   1.0000
     1.0000   1.0000   1.0000   1.0000   1.0000   1.0000   0.9997   0.9510
     0.0000   0.0000   0.0000   0.0000   0.0000   0.0000   0.0000   0.0000

          k = 0.0000 0.2887 0.8563 ( 10070 PWs)   bands (ev):

   -34.9437 -34.9408 -34.9404 -34.5102 -34.4754 -34.4754 -13.2037 -13.1799
   -13.1727 -13.1567 -13.1460 -13.1188 -12.9436 -12.9143 -12.8867 -12.7757
   -12.6284 -12.6176 -12.5390 -12.5245 -12.4751 -12.4640 -12.4431 -12.4348
     1.7719   1.8216   7.9141   8.6366   8.9744   9.0805   9.5282   9.6572
    11.0408  11.8191  11.8517  11.9852  12.0306  12.2409  12.4166  12.7758
    12.9737  13.0730  13.1293  13.4059  13.5605  13.6860  13.8137  13.9142
    14.5049  14.6003  15.0892  15.3156  16.0347  16.2068  16.3093  16.5212

     occupation numbers 
     1.0000   1.0000   1.0000   1.0000   1.0000   1.0000   1.0000   1.0000
     1.0000   1.0000   1.0000   1.0000   1.0000   1.0000   1.0000   1.0000
     1.0000   1.0000   1.0000   1.0000   1.0000   1.0000   1.0000   1.0000
     1.0000   1.0000   1.0000   1.0000   1.0000   1.0000   1.0000   1.0000
     1.0000   1.0000   1.0000   1.0000   1.0000   1.0000   1.0000   1.0000
     1.0000   1.0000   1.0000   1.0000   1.0000   1.0000   0.9999   0.9950
     0.0002   0.0000   0.0000   0.0000   0.0000   0.0000   0.0000   0.0000

          k = 0.0000 0.2887-1.0704 ( 10086 PWs)   bands (ev):

   -34.9423 -34.9398 -34.9394 -34.5095 -34.4747 -34.4746 -13.1991 -13.1951
   -13.1907 -13.1594 -13.1438 -13.1340 -12.9483 -12.9060 -12.8470 -12.8069
   -12.6346 -12.6160 -12.5517 -12.5280 -12.4714 -12.4574 -12.4571 -12.4486
     1.8211   1.9510   7.6160   8.4728   8.9626   9.0807   9.7094   9.7519
    11.1481  11.7417  11.7801  12.0062  12.0695  12.3537  12.4960  12.6436
    12.9074  13.0078  13.1637  13.4084  13.4352  13.6480  13.8716  13.9343
    14.5797  14.7226  14.9097  15.0931  16.2634  16.2922  16.5293  16.5607

     occupation numbers 
     1.0000   1.0000   1.0000   1.0000   1.0000   1.0000   1.0000   1.0000
     1.0000   1.0000   1.0000   1.0000   1.0000   1.0000   1.0000   1.0000
     1.0000   1.0000   1.0000   1.0000   1.0000   1.0000   1.0000   1.0000
     1.0000   1.0000   1.0000   1.0000   1.0000   1.0000   1.0000   1.0000
     1.0000   1.0000   1.0000   1.0000   1.0000   1.0000   1.0000   1.0000
     1.0000   1.0000   1.0000   1.0000   1.0000   1.0000   0.9987   0.9910
     0.0000   0.0000   0.0000   0.0000   0.0000   0.0000   0.0000   0.0000

          k = 0.0000 0.3849 0.0000 ( 10070 PWs)   bands (ev):

   -34.9561 -34.9515 -34.9504 -34.5172 -34.4830 -34.4818 -13.2535 -13.1934
   -13.1818 -13.0396 -12.9916 -12.9630 -12.9420 -12.9371 -12.9184 -12.7935
   -12.6261 -12.5523 -12.4983 -12.4645 -12.4254 -12.4038 -12.3820 -12.3730
     0.9484   1.3140   7.9683   8.1441   8.9766   9.4936  10.2635  11.1230
    11.2713  11.5832  11.7630  11.8281  12.0622  12.2018  12.2858  12.2948
    12.3888  12.9884  13.0346  14.1515  14.4971  14.5778  14.8011  14.9258
    15.0036  15.0497  15.1594  15.2635  15.4387  15.4525  15.5680  15.6031

     occupation numbers 
     1.0000   1.0000   1.0000   1.0000   1.0000   1.0000   1.0000   1.0000
     1.0000   1.0000   1.0000   1.0000   1.0000   1.0000   1.0000   1.0000
     1.0000   1.0000   1.0000   1.0000   1.0000   1.0000   1.0000   1.0000
     1.0000   1.0000   1.0000   1.0000   1.0000   1.0000   1.0000   1.0000
     1.0000   1.0000   1.0000   1.0000   1.0000   1.0000   1.0000   1.0000
     1.0000   1.0000   1.0000   0.5428   0.0002   0.0000   0.0000   0.0000
     0.0000   0.0000   0.0000   0.0000   0.0000   0.0000   0.0000   0.0000

          k = 0.0000 0.3849 0.2141 ( 10087 PWs)   bands (ev):

   -34.9547 -34.9504 -34.9494 -34.5164 -34.4822 -34.4811 -13.2476 -13.1901
   -13.1781 -13.0297 -12.9952 -12.9894 -12.9677 -12.9570 -12.9108 -12.7808
   -12.6227 -12.5592 -12.5007 -12.4702 -12.4340 -12.4055 -12.3877 -12.3865
     1.0254   1.3576   8.0896   8.2232   9.0199   9.4814  10.3304  10.8853
    11.0089  11.3910  11.6986  11.8890  11.9968  12.1080  12.2488  12.4282
    12.6098  13.0180  13.2277  13.8580  14.1857  14.3118  14.5028  14.7067
    14.8814  15.1392  15.3545  15.4762  15.4896  15.5061  15.6312  15.8785

     occupation numbers 
     1.0000   1.0000   1.0000   1.0000   1.0000   1.0000   1.0000   1.0000
     1.0000   1.0000   1.0000   1.0000   1.0000   1.0000   1.0000   1.0000
     1.0000   1.0000   1.0000   1.0000   1.0000   1.0000   1.0000   1.0000
     1.0000   1.0000   1.0000   1.0000   1.0000   1.0000   1.0000   1.0000
     1.0000   1.0000   1.0000   1.0000   1.0000   1.0000   1.0000   1.0000
     1.0000   1.0000   1.0000   0.9992   0.4020   0.0595   0.0002   0.0000
     0.0000   0.0000   0.0000   0.0000   0.0000   0.0000   0.0000   0.0000

          k = 0.0000 0.3849 0.4281 ( 10090 PWs)   bands (ev):

   -34.9512 -34.9476 -34.9466 -34.5145 -34.4801 -34.4793 -13.2327 -13.1821
   -13.1688 -13.0522 -13.0432 -13.0211 -12.9997 -12.9518 -12.9123 -12.7634
   -12.6205 -12.5789 -12.5073 -12.4815 -12.4522 -12.4237 -12.4115 -12.4016
     1.2400   1.4767   8.4168   8.4288   9.0950   9.4198  10.0004  10.1276
    10.5388  11.5368  11.8607  11.9515  12.0255  12.0522  12.4471  12.6633
    12.8613  12.9656  13.3149  13.4726  13.7739  13.9735  14.0829  14.3442
    14.6719  15.0371  15.3110  15.5024  15.6334  15.7438  15.8691  16.1905

     occupation numbers 
     1.0000   1.0000   1.0000   1.0000   1.0000   1.0000   1.0000   1.0000
     1.0000   1.0000   1.0000   1.0000   1.0000   1.0000   1.0000   1.0000
     1.0000   1.0000   1.0000   1.0000   1.0000   1.0000   1.0000   1.0000
     1.0000   1.0000   1.0000   1.0000   1.0000   1.0000   1.0000   1.0000
     1.0000   1.0000   1.0000   1.0000   1.0000   1.0000   1.0000   1.0000
     1.0000   1.0000   1.0000   1.0000   1.0000   0.9749   0.7940   0.0290
     0.0000   0.0000   0.0000   0.0000   0.0000   0.0000   0.0000   0.0000

          k = 0.0000 0.3849 0.6422 ( 10091 PWs)   bands (ev):

   -34.9469 -34.9440 -34.9432 -34.5121 -34.4775 -34.4771 -13.2156 -13.1737
   -13.1588 -13.1202 -13.1110 -13.0747 -12.9585 -12.9307 -12.9189 -12.7611
   -12.6223 -12.6084 -12.5161 -12.4995 -12.4674 -12.4515 -12.4309 -12.4185
     1.5386   1.6357   8.5507   8.7721   8.8945   9.2485   9.2964   9.6371
    10.7998  11.8321  11.9095  11.9884  12.0299  12.0668  12.6420  12.6985
    12.9380  13.0884  13.1213  13.4599  13.5097  13.7497  13.8128  14.1391
    14.5682  14.7841  15.3296  15.5086  15.6778  15.9656  16.1072  16.2605

     occupation numbers 
     1.0000   1.0000   1.0000   1.0000   1.0000   1.0000   1.0000   1.0000
     1.0000   1.0000   1.0000   1.0000   1.0000   1.0000   1.0000   1.0000
     1.0000   1.0000   1.0000   1.0000   1.0000   1.0000   1.0000   1.0000
     1.0000   1.0000   1.0000   1.0000   1.0000   1.0000   1.0000   1.0000
     1.0000   1.0000   1.0000   1.0000   1.0000   1.0000   1.0000   1.0000
     1.0000   1.0000   1.0000   1.0000   1.0000   1.0000   0.9999   0.5935
     0.0000   0.0000   0.0000   0.0000   0.0000   0.0000   0.0000   0.0000

          k = 0.0000 0.3849 0.8563 ( 10072 PWs)   bands (ev):

   -34.9433 -34.9412 -34.9405 -34.5102 -34.4754 -34.4754 -13.2037 -13.1781
   -13.1733 -13.1587 -13.1425 -13.1154 -12.9531 -12.9128 -12.8815 -12.7796
   -12.6389 -12.6210 -12.5261 -12.5237 -12.4723 -12.4603 -12.4472 -12.4363
     1.7758   1.8183   7.9736   8.5103   8.9878   9.1536   9.4600   9.6420
    11.0176  11.9078  11.9550  11.9655  12.0366  12.2497  12.3851  12.7630
    12.9222  13.0289  13.1804  13.3610  13.4671  13.6785  13.7407  13.9258
    14.6058  14.8134  15.2442  15.4852  15.9639  16.1739  16.2718  16.5551

     occupation numbers 
     1.0000   1.0000   1.0000   1.0000   1.0000   1.0000   1.0000   1.0000
     1.0000   1.0000   1.0000   1.0000   1.0000   1.0000   1.0000   1.0000
     1.0000   1.0000   1.0000   1.0000   1.0000   1.0000   1.0000   1.0000
     1.0000   1.0000   1.0000   1.0000   1.0000   1.0000   1.0000   1.0000
     1.0000   1.0000   1.0000   1.0000   1.0000   1.0000   1.0000   1.0000
     1.0000   1.0000   1.0000   1.0000   1.0000   1.0000   1.0000   0.9929
     0.0000   0.0000   0.0000   0.0000   0.0000   0.0000   0.0000   0.0000

          k = 0.0000 0.3849-1.0704 ( 10056 PWs)   bands (ev):

   -34.9420 -34.9401 -34.9394 -34.5095 -34.4747 -34.4746 -13.1997 -13.1943
   -13.1893 -13.1623 -13.1393 -13.1307 -12.9607 -12.9003 -12.8450 -12.8050
   -12.6522 -12.6194 -12.5380 -12.5268 -12.4681 -12.4670 -12.4505 -12.4465
     1.8328   1.9375   7.6932   8.3503   8.9815   9.1650   9.6333   9.6933
    11.0923  11.8654  11.9132  11.9738  12.0771  12.3216  12.4532  12.6895
    12.8825  12.9877  13.1177  13.3117  13.4558  13.6953  13.7298  13.8171
    14.7159  14.9511  15.1475  15.3188  16.0442  16.2548  16.5756  16.6478

     occupation numbers 
     1.0000   1.0000   1.0000   1.0000   1.0000   1.0000   1.0000   1.0000
     1.0000   1.0000   1.0000   1.0000   1.0000   1.0000   1.0000   1.0000
     1.0000   1.0000   1.0000   1.0000   1.0000   1.0000   1.0000   1.0000
     1.0000   1.0000   1.0000   1.0000   1.0000   1.0000   1.0000   1.0000
     1.0000   1.0000   1.0000   1.0000   1.0000   1.0000   1.0000   1.0000
     1.0000   1.0000   1.0000   1.0000   1.0000   1.0000   1.0000   0.9998
     0.0000   0.0000   0.0000   0.0000   0.0000   0.0000   0.0000   0.0000

          k = 0.0000 0.4811 0.0000 ( 10100 PWs)   bands (ev):

   -34.9550 -34.9524 -34.9506 -34.5177 -34.4828 -34.4814 -13.2419 -13.2047
   -13.1861 -13.0318 -13.0009 -12.9578 -12.9466 -12.9378 -12.9110 -12.8024
   -12.6052 -12.5506 -12.5003 -12.4729 -12.4309 -12.4059 -12.3810 -12.3718
     1.0037   1.2595   7.9181   8.0983   9.0151   9.5089  10.2940  11.1502
    11.3473  11.5974  11.7443  11.7563  12.1135  12.2128  12.2586  12.3805
    12.5227  12.8651  12.9628  14.1296  14.5039  14.5459  14.6836  14.9169
    15.0988  15.1192  15.2094  15.2608  15.3584  15.3942  15.5380  15.6331

     occupation numbers 
     1.0000   1.0000   1.0000   1.0000   1.0000   1.0000   1.0000   1.0000
     1.0000   1.0000   1.0000   1.0000   1.0000   1.0000   1.0000   1.0000
     1.0000   1.0000   1.0000   1.0000   1.0000   1.0000   1.0000   1.0000
     1.0000   1.0000   1.0000   1.0000   1.0000   1.0000   1.0000   1.0000
     1.0000   1.0000   1.0000   1.0000   1.0000   1.0000   1.0000   1.0000
     1.0000   1.0000   1.0000   0.6312   0.0002   0.0000   0.0000   0.0000
     0.0000   0.0000   0.0000   0.0000   0.0000   0.0000   0.0000   0.0000

          k = 0.0000 0.4811 0.2141 ( 10096 PWs)   bands (ev):

   -34.9537 -34.9513 -34.9495 -34.5169 -34.4820 -34.4807 -13.2371 -13.2005
   -13.1818 -13.0237 -13.0001 -12.9831 -12.9693 -12.9620 -12.9062 -12.7889
   -12.6078 -12.5555 -12.5025 -12.4744 -12.4380 -12.4085 -12.3885 -12.3853
     1.0761   1.3083   8.0414   8.1720   9.0557   9.4965  10.3672  10.9137
    11.0694  11.3286  11.7067  11.9181  12.0127  12.1185  12.2592  12.5066
    12.6500  12.9605  13.1384  13.8680  14.1513  14.3059  14.5050  14.6738
    14.9301  15.1778  15.2880  15.4445  15.4517  15.4870  15.6284  15.8382

     occupation numbers 
     1.0000   1.0000   1.0000   1.0000   1.0000   1.0000   1.0000   1.0000
     1.0000   1.0000   1.0000   1.0000   1.0000   1.0000   1.0000   1.0000
     1.0000   1.0000   1.0000   1.0000   1.0000   1.0000   1.0000   1.0000
     1.0000   1.0000   1.0000   1.0000   1.0000   1.0000   1.0000   1.0000
     1.0000   1.0000   1.0000   1.0000   1.0000   1.0000   1.0000   1.0000
     1.0000   1.0000   1.0000   0.9989   0.5438   0.0671   0.0002   0.0000
     0.0000   0.0000   0.0000   0.0000   0.0000   0.0000   0.0000   0.0000

          k = 0.0000 0.4811 0.4281 ( 10105 PWs)   bands (ev):

   -34.9504 -34.9482 -34.9467 -34.5149 -34.4800 -34.4791 -13.2251 -13.1898
   -13.1710 -13.0489 -13.0436 -13.0249 -12.9888 -12.9576 -12.9117 -12.7716
   -12.6169 -12.5729 -12.5085 -12.4758 -12.4531 -12.4220 -12.4176 -12.4046
     1.2775   1.4418   8.3507   8.3889   9.1209   9.4261  10.0382  10.1297
    10.5981  11.5279  11.8806  11.9375  12.0394  12.0952  12.4524  12.6933
    12.8113  12.9627  13.3248  13.4526  13.7332  14.0093  14.0847  14.3852
    14.6673  15.0224  15.2683  15.4961  15.5977  15.7385  15.9320  16.2426

     occupation numbers 
     1.0000   1.0000   1.0000   1.0000   1.0000   1.0000   1.0000   1.0000
     1.0000   1.0000   1.0000   1.0000   1.0000   1.0000   1.0000   1.0000
     1.0000   1.0000   1.0000   1.0000   1.0000   1.0000   1.0000   1.0000
[...]
     1.0000   1.0000   1.0000   1.0000   1.0000   0.9999   0.9994   0.0002
     0.0000   0.0000   0.0000   0.0000   0.0000   0.0000   0.0000   0.0000

          k = 0.2500 0.4330 0.6422 ( 10083 PWs)   bands (ev):

   -34.9461 -34.9445 -34.9435 -34.5124 -34.4773 -34.4771 -13.2084 -13.1851
   -13.1544 -13.1153 -13.1101 -13.0814 -12.9514 -12.9246 -12.9226 -12.7793
   -12.6185 -12.6108 -12.5165 -12.4822 -12.4582 -12.4496 -12.4382 -12.4313
     1.5617   1.6162   8.5323   8.7146   8.7436   9.3719   9.4011   9.6217
    10.8012  11.8123  11.9219  11.9408  12.1129  12.1314  12.5175  12.8380
    12.8996  13.0638  13.1880  13.4187  13.5020  13.6592  13.7019  14.2986
    14.6605  14.8703  15.3759  15.4784  15.7643  15.8472  16.0437  16.1755

     occupation numbers 
     1.0000   1.0000   1.0000   1.0000   1.0000   1.0000   1.0000   1.0000
     1.0000   1.0000   1.0000   1.0000   1.0000   1.0000   1.0000   1.0000
     1.0000   1.0000   1.0000   1.0000   1.0000   1.0000   1.0000   1.0000
     1.0000   1.0000   1.0000   1.0000   1.0000   1.0000   1.0000   1.0000
     1.0000   1.0000   1.0000   1.0000   1.0000   1.0000   1.0000   1.0000
     1.0000   1.0000   1.0000   1.0000   1.0000   1.0000   1.0000   0.0775
     0.0000   0.0000   0.0000   0.0000   0.0000   0.0000   0.0000   0.0000

          k = 0.2500 0.4330 0.8563 ( 10071 PWs)   bands (ev):

   -34.9428 -34.9416 -34.9405 -34.5103 -34.4754 -34.4754 -13.1983 -13.1834
   -13.1650 -13.1623 -13.1390 -13.1210 -12.9647 -12.8970 -12.8815 -12.7845
   -12.6429 -12.6359 -12.5230 -12.5077 -12.4688 -12.4555 -12.4538 -12.4401
     1.7843   1.8103   8.0656   8.3759   8.9384   9.2842   9.4247   9.5854
    10.9780  11.9463  11.9712  12.0416  12.0845  12.1395  12.4487  12.8993
    12.9308  13.0799  13.1099  13.2674  13.3479  13.6150  13.6370  13.9490
    14.8338  14.9191  15.4258  15.6393  16.0018  16.0578  16.2487  16.2876

     occupation numbers 
     1.0000   1.0000   1.0000   1.0000   1.0000   1.0000   1.0000   1.0000
     1.0000   1.0000   1.0000   1.0000   1.0000   1.0000   1.0000   1.0000
     1.0000   1.0000   1.0000   1.0000   1.0000   1.0000   1.0000   1.0000
     1.0000   1.0000   1.0000   1.0000   1.0000   1.0000   1.0000   1.0000
     1.0000   1.0000   1.0000   1.0000   1.0000   1.0000   1.0000   1.0000
     1.0000   1.0000   1.0000   1.0000   1.0000   1.0000   1.0000   0.9865
     0.0000   0.0000   0.0000   0.0000   0.0000   0.0000   0.0000   0.0000

          k = 0.2500 0.4330-1.0704 ( 10044 PWs)   bands (ev):

   -34.9416 -34.9405 -34.9394 -34.5095 -34.4747 -34.4747 -13.1927 -13.1899
   -13.1894 -13.1701 -13.1358 -13.1340 -12.9743 -12.8850 -12.8515 -12.7945
   -12.6570 -12.6442 -12.5256 -12.5195 -12.4780 -12.4556 -12.4546 -12.4434
     1.8531   1.9152   7.8124   8.1884   9.0348   9.2878   9.5060   9.6040
    11.0320  11.9941  12.0232  12.0233  12.0392  12.1981  12.4604  12.8568
    12.9690  13.0135  13.0363  13.2108  13.4137  13.6350  13.6367  13.6717
    14.9544  14.9993  15.4279  15.5919  16.0243  16.2211  16.4670  16.6239

     occupation numbers 
     1.0000   1.0000   1.0000   1.0000   1.0000   1.0000   1.0000   1.0000
     1.0000   1.0000   1.0000   1.0000   1.0000   1.0000   1.0000   1.0000
     1.0000   1.0000   1.0000   1.0000   1.0000   1.0000   1.0000   1.0000
     1.0000   1.0000   1.0000   1.0000   1.0000   1.0000   1.0000   1.0000
     1.0000   1.0000   1.0000   1.0000   1.0000   1.0000   1.0000   1.0000
     1.0000   1.0000   1.0000   1.0000   1.0000   1.0000   1.0000   1.0000
     0.0000   0.0000   0.0000   0.0000   0.0000   0.0000   0.0000   0.0000

          k = 0.2500 0.5292 0.0000 ( 10144 PWs)   bands (ev):

   -34.9538 -34.9527 -34.9514 -34.5182 -34.4822 -34.4816 -13.2302 -13.2152
   -13.1895 -13.0113 -12.9984 -12.9589 -12.9522 -12.9471 -12.9429 -12.7612
   -12.5996 -12.5718 -12.5022 -12.4598 -12.4407 -12.4082 -12.3771 -12.3734
     1.0790   1.1857   7.6715   8.4825   8.7458   9.6985  10.2066  11.2104
    11.4597  11.6241  11.6671  11.6883  12.1987  12.2204  12.2381  12.3291
    12.5226  12.9037  12.9662  14.2815  14.5595  14.5712  14.5990  14.7502
    14.7604  14.8165  15.0807  15.1984  15.2173  15.7031  15.8100  15.8459

     occupation numbers 
     1.0000   1.0000   1.0000   1.0000   1.0000   1.0000   1.0000   1.0000
     1.0000   1.0000   1.0000   1.0000   1.0000   1.0000   1.0000   1.0000
     1.0000   1.0000   1.0000   1.0000   1.0000   1.0000   1.0000   1.0000
     1.0000   1.0000   1.0000   1.0000   1.0000   1.0000   1.0000   1.0000
     1.0000   1.0000   1.0000   1.0000   1.0000   1.0000   1.0000   1.0000
     1.0000   1.0000   1.0000   0.1068   0.0000   0.0000   0.0000   0.0000
     0.0000   0.0000   0.0000   0.0000   0.0000   0.0000   0.0000   0.0000

          k = 0.2500 0.5292 0.2141 ( 10119 PWs)   bands (ev):

   -34.9526 -34.9515 -34.9503 -34.5174 -34.4814 -34.4809 -13.2260 -13.2111
   -13.1844 -13.0085 -12.9988 -12.9879 -12.9694 -12.9627 -12.9310 -12.7668
   -12.5978 -12.5725 -12.5041 -12.4616 -12.4449 -12.4130 -12.3872 -12.3859
     1.1447   1.2416   7.7896   8.5451   8.7920   9.6818  10.2985  10.9959
    11.0655  11.3137  11.7778  11.8095  12.0781  12.1049  12.3257  12.4472
    12.5394  13.1239  13.1591  13.9180  14.1498  14.1916  14.2450  14.7672
    15.0680  15.0907  15.1904  15.2438  15.4953  15.6147  15.8594  15.9451

     occupation numbers 
     1.0000   1.0000   1.0000   1.0000   1.0000   1.0000   1.0000   1.0000
     1.0000   1.0000   1.0000   1.0000   1.0000   1.0000   1.0000   1.0000
     1.0000   1.0000   1.0000   1.0000   1.0000   1.0000   1.0000   1.0000
     1.0000   1.0000   1.0000   1.0000   1.0000   1.0000   1.0000   1.0000
     1.0000   1.0000   1.0000   1.0000   1.0000   1.0000   1.0000   1.0000
     1.0000   1.0000   1.0000   0.9944   0.5497   0.3786   0.1936   0.0000
     0.0000   0.0000   0.0000   0.0000   0.0000   0.0000   0.0000   0.0000

          k = 0.2500 0.5292 0.4281 ( 10098 PWs)   bands (ev):

   -34.9495 -34.9485 -34.9473 -34.5152 -34.4796 -34.4792 -13.2154 -13.2012
   -13.1707 -13.0455 -13.0431 -13.0360 -12.9659 -12.9560 -12.9263 -12.7797
   -12.6009 -12.5831 -12.5095 -12.4629 -12.4525 -12.4253 -12.4175 -12.4132
     1.3267   1.3952   8.1125   8.6883   8.8760   9.6275  10.0940  10.1211
    10.5403  11.5372  11.8889  11.9146  12.0845  12.1100  12.5082  12.5526
    12.6552  13.3059  13.3990  13.5035  13.7044  13.7859  13.8246  14.5707
    14.8695  14.9918  15.2769  15.3201  15.7290  15.8100  15.9754  16.1191

     occupation numbers 
     1.0000   1.0000   1.0000   1.0000   1.0000   1.0000   1.0000   1.0000
     1.0000   1.0000   1.0000   1.0000   1.0000   1.0000   1.0000   1.0000
     1.0000   1.0000   1.0000   1.0000   1.0000   1.0000   1.0000   1.0000
     1.0000   1.0000   1.0000   1.0000   1.0000   1.0000   1.0000   1.0000
     1.0000   1.0000   1.0000   1.0000   1.0000   1.0000   1.0000   1.0000
     1.0000   1.0000   1.0000   1.0000   1.0000   1.0000   0.9998   0.0000
     0.0000   0.0000   0.0000   0.0000   0.0000   0.0000   0.0000   0.0000

          k = 0.2500 0.5292 0.6422 ( 10078 PWs)   bands (ev):

   -34.9456 -34.9449 -34.9436 -34.5125 -34.4773 -34.4771 -13.2038 -13.1906
   -13.1533 -13.1122 -13.1099 -13.0858 -12.9478 -12.9243 -12.9214 -12.7872
   -12.6176 -12.6112 -12.5166 -12.4690 -12.4567 -12.4484 -12.4458 -12.4363
     1.5762   1.6031   8.5222   8.6912   8.7074   9.4222   9.4352   9.6046
    10.7992  11.8162  11.9088  11.9298  12.1478  12.1566  12.4864  12.8355
    12.8999  13.1006  13.2021  13.3838  13.4570  13.6578  13.6939  14.3445
    14.7123  14.8840  15.3813  15.4673  15.7607  15.8947  16.0226  16.0557

     occupation numbers 
     1.0000   1.0000   1.0000   1.0000   1.0000   1.0000   1.0000   1.0000
     1.0000   1.0000   1.0000   1.0000   1.0000   1.0000   1.0000   1.0000
     1.0000   1.0000   1.0000   1.0000   1.0000   1.0000   1.0000   1.0000
     1.0000   1.0000   1.0000   1.0000   1.0000   1.0000   1.0000   1.0000
     1.0000   1.0000   1.0000   1.0000   1.0000   1.0000   1.0000   1.0000
     1.0000   1.0000   1.0000   1.0000   1.0000   1.0000   1.0000   0.0288
     0.0000   0.0000   0.0000   0.0000   0.0000   0.0000   0.0000   0.0000

          k = 0.2500 0.5292 0.8563 ( 10065 PWs)   bands (ev):

   -34.9425 -34.9419 -34.9406 -34.5103 -34.4754 -34.4754 -13.1955 -13.1849
   -13.1641 -13.1613 -13.1379 -13.1247 -12.9682 -12.8925 -12.8792 -12.7876
   -12.6462 -12.6392 -12.5228 -12.4957 -12.4763 -12.4564 -12.4490 -12.4430
     1.7900   1.8049   8.1341   8.2890   8.9319   9.3545   9.3994   9.5458
    10.9646  11.9470  11.9726  12.0611  12.1188  12.1275  12.4601  12.9039
    12.9881  13.0738  13.1110  13.2403  13.2937  13.5925  13.5999  13.9526
    14.8744  15.0036  15.5308  15.6679  15.9527  16.0703  16.1765  16.2718

     occupation numbers 
     1.0000   1.0000   1.0000   1.0000   1.0000   1.0000   1.0000   1.0000
     1.0000   1.0000   1.0000   1.0000   1.0000   1.0000   1.0000   1.0000
     1.0000   1.0000   1.0000   1.0000   1.0000   1.0000   1.0000   1.0000
     1.0000   1.0000   1.0000   1.0000   1.0000   1.0000   1.0000   1.0000
     1.0000   1.0000   1.0000   1.0000   1.0000   1.0000   1.0000   1.0000
     1.0000   1.0000   1.0000   1.0000   1.0000   1.0000   1.0000   0.9852
     0.0000   0.0000   0.0000   0.0000   0.0000   0.0000   0.0000   0.0000

          k = 0.2500 0.5292-1.0704 ( 10046 PWs)   bands (ev):

   -34.9413 -34.9408 -34.9394 -34.5095 -34.4747 -34.4747 -13.1908 -13.1881
   -13.1858 -13.1744 -13.1393 -13.1323 -12.9788 -12.8770 -12.8568 -12.7886
   -12.6640 -12.6493 -12.5252 -12.5077 -12.4873 -12.4571 -12.4508 -12.4417
     1.8670   1.9006   7.8958   8.0898   9.0660   9.3638   9.4490   9.5386
    11.0117  11.9934  12.0400  12.0712  12.0824  12.1599  12.4623  12.8494
    12.9791  13.0483  13.0770  13.1830  13.3934  13.5964  13.6026  13.6180
    14.9724  15.0853  15.5845  15.6836  15.9647  16.2477  16.5043  16.5307

     occupation numbers 
     1.0000   1.0000   1.0000   1.0000   1.0000   1.0000   1.0000   1.0000
     1.0000   1.0000   1.0000   1.0000   1.0000   1.0000   1.0000   1.0000
     1.0000   1.0000   1.0000   1.0000   1.0000   1.0000   1.0000   1.0000
     1.0000   1.0000   1.0000   1.0000   1.0000   1.0000   1.0000   1.0000
     1.0000   1.0000   1.0000   1.0000   1.0000   1.0000   1.0000   1.0000
     1.0000   1.0000   1.0000   1.0000   1.0000   1.0000   1.0000   1.0000
     0.0000   0.0000   0.0000   0.0000   0.0000   0.0000   0.0000   0.0000

          k = 0.3333 0.5774 0.0000 ( 10158 PWs)   bands (ev):

   -34.9531 -34.9531 -34.9517 -34.5183 -34.4818 -34.4818 -13.2225 -13.2225
   -13.1904 -12.9997 -12.9997 -12.9730 -12.9487 -12.9487 -12.9449 -12.7537
   -12.5878 -12.5877 -12.5026 -12.4497 -12.4497 -12.4086 -12.3750 -12.3750
     1.1325   1.1325   7.6426   8.6211   8.6211   9.7269  10.1877  11.2241
    11.5413  11.5413  11.6773  11.6773  12.2277  12.2277  12.2642  12.2642
    12.5218  12.9433  12.9433  14.3341  14.5829  14.5829  14.6347  14.6901
    14.6901  14.7048  15.1063  15.1787  15.1787  15.7833  15.8844  15.8844

     occupation numbers 
     1.0000   1.0000   1.0000   1.0000   1.0000   1.0000   1.0000   1.0000
     1.0000   1.0000   1.0000   1.0000   1.0000   1.0000   1.0000   1.0000
     1.0000   1.0000   1.0000   1.0000   1.0000   1.0000   1.0000   1.0000
     1.0000   1.0000   1.0000   1.0000   1.0000   1.0000   1.0000   1.0000
     1.0000   1.0000   1.0000   1.0000   1.0000   1.0000   1.0000   1.0000
     1.0000   1.0000   1.0000   0.0367   0.0000   0.0000   0.0000   0.0000
     0.0000   0.0000   0.0000   0.0000   0.0000   0.0000   0.0000   0.0000

          k = 0.3333 0.5774 0.2141 ( 10143 PWs)   bands (ev):

   -34.9520 -34.9520 -34.9505 -34.5175 -34.4811 -34.4811 -13.2184 -13.2184
   -13.1850 -12.9992 -12.9992 -12.9950 -12.9653 -12.9653 -12.9365 -12.7625
   -12.5861 -12.5861 -12.5045 -12.4524 -12.4524 -12.4140 -12.3865 -12.3865
     1.1934   1.1934   7.7613   8.6741   8.6741   9.7091  10.2836  11.0389
    11.0389  11.3110  11.7927  11.7927  12.0946  12.0946  12.3848  12.3848
    12.5195  13.1611  13.1611  13.9294  14.1596  14.1864  14.1864  14.7810
    15.0469  15.0469  15.2171  15.2171  15.5086  15.7492  15.8607  15.8607

     occupation numbers 
     1.0000   1.0000   1.0000   1.0000   1.0000   1.0000   1.0000   1.0000
     1.0000   1.0000   1.0000   1.0000   1.0000   1.0000   1.0000   1.0000
     1.0000   1.0000   1.0000   1.0000   1.0000   1.0000   1.0000   1.0000
     1.0000   1.0000   1.0000   1.0000   1.0000   1.0000   1.0000   1.0000
     1.0000   1.0000   1.0000   1.0000   1.0000   1.0000   1.0000   1.0000
     1.0000   1.0000   1.0000   0.9922   0.5092   0.3992   0.3992   0.0000
     0.0000   0.0000   0.0000   0.0000   0.0000   0.0000   0.0000   0.0000

          k = 0.3333 0.5774 0.4281 ( 10098 PWs)   bands (ev):

   -34.9490 -34.9490 -34.9475 -34.5153 -34.4794 -34.4794 -13.2084 -13.2084
   -13.1707 -13.0432 -13.0432 -13.0394 -12.9569 -12.9569 -12.9326 -12.7812
   -12.5915 -12.5915 -12.5097 -12.4559 -12.4559 -12.4271 -12.4161 -12.4161
     1.3613   1.3613   8.0874   8.7822   8.7822   9.6569  10.1136  10.1136
    10.5256  11.5417  11.8970  11.8970  12.1071  12.1071  12.5003  12.5877
    12.5877  13.4284  13.4549  13.4549  13.6001  13.7929  13.7929  14.6128
    14.9273  14.9273  15.2848  15.2848  15.8008  15.9124  15.9670  15.9671

     occupation numbers 
     1.0000   1.0000   1.0000   1.0000   1.0000   1.0000   1.0000   1.0000
     1.0000   1.0000   1.0000   1.0000   1.0000   1.0000   1.0000   1.0000
     1.0000   1.0000   1.0000   1.0000   1.0000   1.0000   1.0000   1.0000
     1.0000   1.0000   1.0000   1.0000   1.0000   1.0000   1.0000   1.0000
     1.0000   1.0000   1.0000   1.0000   1.0000   1.0000   1.0000   1.0000
     1.0000   1.0000   1.0000   1.0000   1.0000   0.9999   0.9999   0.0000
     0.0000   0.0000   0.0000   0.0000   0.0000   0.0000   0.0000   0.0000

          k = 0.3333 0.5774 0.6422 ( 10101 PWs)   bands (ev):

   -34.9452 -34.9452 -34.9437 -34.5125 -34.4772 -34.4771 -13.1975 -13.1975
   -13.1526 -13.1100 -13.1100 -13.0889 -12.9464 -12.9219 -12.9219 -12.7912
   -12.6143 -12.6143 -12.5166 -12.4584 -12.4584 -12.4480 -12.4480 -12.4421
     1.5899   1.5899   8.5277   8.6799   8.6799   9.4587   9.4587   9.5821
    10.7925  11.8229  11.9086  11.9086  12.1662  12.1662  12.4674  12.8723
    12.8723  13.1429  13.1872  13.4133  13.4133  13.6574  13.6574  14.3585
    14.8083  14.8083  15.4358  15.4358  15.8746  15.8746  15.8829  16.0398

     occupation numbers 
     1.0000   1.0000   1.0000   1.0000   1.0000   1.0000   1.0000   1.0000
     1.0000   1.0000   1.0000   1.0000   1.0000   1.0000   1.0000   1.0000
     1.0000   1.0000   1.0000   1.0000   1.0000   1.0000   1.0000   1.0000
     1.0000   1.0000   1.0000   1.0000   1.0000   1.0000   1.0000   1.0000
     1.0000   1.0000   1.0000   1.0000   1.0000   1.0000   1.0000   1.0000
     1.0000   1.0000   1.0000   1.0000   1.0000   1.0000   1.0000   0.0205
     0.0000   0.0000   0.0000   0.0000   0.0000   0.0000   0.0000   0.0000

          k = 0.3333 0.5774 0.8563 ( 10077 PWs)   bands (ev):

   -34.9422 -34.9422 -34.9406 -34.5103 -34.4754 -34.4754 -13.1901 -13.1901
   -13.1617 -13.1617 -13.1375 -13.1273 -12.9697 -12.8843 -12.8843 -12.7884
   -12.6443 -12.6443 -12.5227 -12.4850 -12.4850 -12.4537 -12.4471 -12.4471
     1.7975   1.7975   8.2094   8.2094   8.9227   9.3966   9.3966   9.5140
    10.9578  11.9616  11.9616  12.0429  12.1339  12.1339  12.4683  12.9428
    13.0305  13.0305  13.1502  13.2313  13.2313  13.5843  13.5843  13.9419
    14.9563  14.9563  15.6408  15.6408  15.9502  16.1087  16.1087  16.2160

     occupation numbers 
     1.0000   1.0000   1.0000   1.0000   1.0000   1.0000   1.0000   1.0000
     1.0000   1.0000   1.0000   1.0000   1.0000   1.0000   1.0000   1.0000
     1.0000   1.0000   1.0000   1.0000   1.0000   1.0000   1.0000   1.0000
     1.0000   1.0000   1.0000   1.0000   1.0000   1.0000   1.0000   1.0000
     1.0000   1.0000   1.0000   1.0000   1.0000   1.0000   1.0000   1.0000
     1.0000   1.0000   1.0000   1.0000   1.0000   1.0000   1.0000   0.9889
     0.0000   0.0000   0.0000   0.0000   0.0000   0.0000   0.0000   0.0000

          k = 0.3333 0.5774-1.0704 ( 10014 PWs)   bands (ev):

   -34.9410 -34.9410 -34.9394 -34.5095 -34.4747 -34.4747 -13.1883 -13.1883
   -13.1803 -13.1803 -13.1418 -13.1316 -12.9806 -12.8663 -12.8663 -12.7853
   -12.6594 -12.6594 -12.5251 -12.4968 -12.4968 -12.4582 -12.4451 -12.4451
     1.8836   1.8836   7.9901   7.9901   9.0846   9.4200   9.4200   9.4863
    11.0031  12.0186  12.0186  12.0935  12.0935  12.1363  12.4743  12.8625
    13.0028  13.0028  13.1706  13.1706  13.3768  13.5342  13.5956  13.5956
    15.0434  15.0434  15.6828  15.6828  15.9954  16.2971  16.4989  16.4989

     occupation numbers 
     1.0000   1.0000   1.0000   1.0000   1.0000   1.0000   1.0000   1.0000
     1.0000   1.0000   1.0000   1.0000   1.0000   1.0000   1.0000   1.0000
     1.0000   1.0000   1.0000   1.0000   1.0000   1.0000   1.0000   1.0000
     1.0000   1.0000   1.0000   1.0000   1.0000   1.0000   1.0000   1.0000
     1.0000   1.0000   1.0000   1.0000   1.0000   1.0000   1.0000   1.0000
     1.0000   1.0000   1.0000   1.0000   1.0000   1.0000   1.0000   1.0000
     0.0000   0.0000   0.0000   0.0000   0.0000   0.0000   0.0000   0.0000

     the Fermi energy is    14.1619 ev
     (compare with:    14.1491 eV, computed in scf)

     Writing all to output data dir ./tmp/Zr6CoTe2.save/ :
     XML data file, pseudopotentials, collected wavefunctions

     init_run     :      1.16s CPU      1.37s WALL (       1 calls)
     electrons    :   3113.92s CPU   3135.39s WALL (       1 calls)

     Called by init_run:
     wfcinit      :      0.00s CPU      0.00s WALL (       1 calls)
     wfcinit:atom :      0.41s CPU      0.76s WALL (     114 calls)
     wfcinit:wfcr :    195.69s CPU    198.54s WALL (     114 calls)
     potinit      :      0.13s CPU      0.16s WALL (       1 calls)
     hinit0       :      0.29s CPU      0.30s WALL (       1 calls)

     Called by electrons:
     c_bands      :   3113.90s CPU   3135.36s WALL (       1 calls)
     v_of_rho     :      0.11s CPU      0.13s WALL (       1 calls)
     v_h          :      0.01s CPU      0.01s WALL (       1 calls)
     v_xc         :      0.10s CPU      0.12s WALL (       1 calls)
     newd         :      0.66s CPU      0.81s WALL (       1 calls)

     Called by c_bands:
     init_us_2    :      0.85s CPU      0.98s WALL (     114 calls)
     cegterg      :   2911.00s CPU   2928.79s WALL (     357 calls)

     Called by sum_band:

     Called by *egterg:
     cdiaghg      :     48.46s CPU     48.68s WALL (    6259 calls)
     cegterg:over :    469.03s CPU    470.02s WALL (    6145 calls)
     cegterg:upda :    203.64s CPU    204.66s WALL (    6145 calls)
     cegterg:last :    571.80s CPU    572.69s WALL (    2286 calls)
     h_psi        :   1382.08s CPU   1395.89s WALL (    6616 calls)
     s_psi        :    309.00s CPU    309.86s WALL (    6616 calls)
     g_psi        :      3.96s CPU      3.98s WALL (    6145 calls)

     Called by h_psi:
     h_psi:calbec :    409.81s CPU    411.02s WALL (    6616 calls)
     vloc_psi     :    660.23s CPU    670.89s WALL (    6616 calls)
     add_vuspsi   :    308.27s CPU    309.03s WALL (    6616 calls)

     General routines
     calbec       :    409.78s CPU    410.99s WALL (    6616 calls)
     fft          :      0.08s CPU      0.09s WALL (      13 calls)
     ffts         :      0.00s CPU      0.00s WALL (       1 calls)
     fftw         :    546.18s CPU    554.52s WALL (  286440 calls)
     interpolate  :      0.01s CPU      0.01s WALL (       1 calls)
     davcio       :      0.04s CPU      0.49s WALL (     228 calls)

     Parallel routines

     PWSCF        :  51m57.98s CPU  52m21.22s WALL


   This run was terminated on:  14: 0:13   3Aug2025            

=------------------------------------------------------------------------------=
   JOB DONE.
=------------------------------------------------------------------------------=
