<UPF version="2.0.1">
<PP_INFO>
Generated by new atomic code, or converted to UPF format
Author:
Generation date:
Pseudopotential type: US
Element: Co
Functional:  SLA  PW   PBE  PBE
Suggested minimum cutoff for wavefunctions:   0. Ry
Suggested minimum cutoff for charge density:   0. Ry
The Pseudo was generated with a Scalar-Relativistic Calculation
L component and cutoff radius for Local Potential:  0   0.0000
Valence configuration:
nl pn  l   occ       Rcut    Rcut US       E pseu
4S  0  0  1.00      2.200      2.500     0.000000
3D  0  2  8.00      2.200      2.500     0.000000
Generation configuration: not available.
</PP_INFO>
<!--
END OF HUMAN READABLE SECTION
-->
<PP_HEADER generated="Generated by new atomic code, or converted to UPF format" author="" date="" comment="" element="Co" pseudo_type="US" relativistic="scalar" is_ultrasoft="true" is_paw="false" is_coulomb="false" has_so="false" has_wfc="false" has_gipaw="false" paw_as_gipaw="false" core_correction="true" functional=" SLA  PW   PBE  PBE" z_valence="9.000000000000e0" total_psenergy="-5.656531786500e1" wfc_cutoff="0.000000000000e0" rho_cutoff="0.000000000000e0" l_max="2" l_max_rho="0" l_local="0" mesh_size="961" number_of_wfc="2" number_of_proj="6"/>
<PP_MESH dx="1.500000000000e-2" mesh="961" xmin="-7.000000000001e0" rmax="6.059201592580e1" zmesh="2.700000000000e1">
<PP_R>
3.377340613160000e-5 3.428382580080000e-5 3.480195947540000e-5 3.532792373770000e-5
3.586183693189999e-5 3.640381919069999e-5 3.695399246240000e-5 3.751248053830000e-5
3.807940908050000e-5 3.865490565050001e-5 3.923909973730000e-5 3.983212278710000e-5
4.043410823259999e-5 4.104519152300000e-5 4.166551015460001e-5 4.229520370179999e-5
4.293441384830000e-5 4.358328441900000e-5 4.424196141260000e-5 4.491059303420000e-5
4.558932972860001e-5 4.627832421460000e-5 4.697773151880000e-5 4.768770901070001e-5
4.840841643840000e-5 4.914001596400000e-5 4.988267220039999e-5 5.063655224860000e-5
5.140182573470000e-5 5.217866484839999e-5 5.296724438180000e-5 5.376774176860000e-5
5.458033712420000e-5 5.540521328590000e-5 5.624255585440000e-5 5.709255323510000e-5
5.795539668130000e-5 5.883128033609999e-5 5.972040127730001e-5 6.062295956070000e-5
6.153915826570001e-5 6.246920354100000e-5 6.341330465060000e-5 6.437167402130001e-5
6.534452729020001e-5 6.633208335340001e-5 6.733456441520001e-5 6.835219603810000e-5
6.938520719340000e-5 7.043383031310000e-5 7.149830134180000e-5 7.257885978990000e-5
7.367574878759999e-5 7.478921513960000e-5 7.591950938060000e-5 7.706688583150001e-5
7.823160265680000e-5 7.941392192270000e-5 8.061410965609999e-5 8.183243590430001e-5
8.306917479579999e-5 8.432460460200000e-5 8.559900780009999e-5 8.689267113600000e-5
8.820588568949999e-5 8.953894693940001e-5 9.089215483009999e-5 9.226581383919999e-5
9.366023304550000e-5 9.507572619950000e-5 9.651261179290000e-5 9.797121313120002e-5
9.945185840570002e-5 1.009548807680000e-4 1.024806184040000e-4 1.040294146120000e-4
1.056016178770000e-4 1.071975819520000e-4 1.088176659340000e-4 1.104622343510000e-4
1.121316572360000e-4 1.138263102170000e-4 1.155465745990000e-4 1.172928374470000e-4
1.190654916780000e-4 1.208649361470000e-4 1.226915757370000e-4 1.245458214490000e-4
1.264280904960000e-4 1.283388063969999e-4 1.302783990710000e-4 1.322473049340000e-4
1.342459669990000e-4 1.362748349720000e-4 1.383343653590000e-4 1.404250215610000e-4
1.425472739860000e-4 1.447016001480000e-4 1.468884847810000e-4 1.491084199430000e-4
1.513619051280000e-4 1.536494473810000e-4 1.559715614070000e-4 1.583287696930000e-4
1.607216026200000e-4 1.631505985850000e-4 1.656163041240000e-4 1.681192740300000e-4
1.706600714810000e-4 1.732392681690000e-4 1.758574444230000e-4 1.785151893430000e-4
1.812131009350000e-4 1.839517862380000e-4 1.867318614700000e-4 1.895539521580000e-4
1.924186932850000e-4 1.953267294300000e-4 1.982787149130000e-4 2.012753139440000e-4
2.043172007690000e-4 2.074050598260000e-4 2.105395858970000e-4 2.137214842630000e-4
2.169514708640000e-4 2.202302724620000e-4 2.235586268000000e-4 2.269372827719999e-4
2.303670005900000e-4 2.338485519560000e-4 2.373827202320000e-4 2.409703006210000e-4
2.446121003450000e-4 2.483089388230000e-4 2.520616478600000e-4 2.558710718320000e-4
2.597380678740000e-4 2.636635060760000e-4 2.676482696810000e-4 2.716932552750000e-4
2.757993729970000e-4 2.799675467420000e-4 2.841987143660000e-4 2.884938279000000e-4
2.928538537630000e-4 2.972797729780000e-4 3.017725813959999e-4 3.063332899170001e-4
3.109629247220000e-4 3.156625274960000e-4 3.204331556710000e-4 3.252758826580000e-4
3.301917980900000e-4 3.351820080700000e-4 3.402476354160000e-4 3.453898199159999e-4
3.506097185820000e-4 3.559085059140000e-4 3.612873741610000e-4 3.667475335910000e-4
3.722902127640000e-4 3.779166588060000e-4 3.836281376890000e-4 3.894259345230000e-4
3.953113538339999e-4 4.012857198679999e-4 4.073503768820000e-4 4.135066894490000e-4
4.197560427650000e-4 4.260998429630000e-4 4.325395174220001e-4 4.390765150980000e-4
4.457123068420000e-4 4.524483857349999e-4 4.592862674240000e-4 4.662274904609999e-4
4.732736166490001e-4 4.804262313990000e-4 4.876869440769999e-4 4.950573883750000e-4
5.025392226739999e-4 5.101341304180000e-4 5.178438204940000e-4 5.256700276139999e-4
5.336145127080001e-4 5.416790633180000e-4 5.498654940030000e-4 5.581756467440000e-4
5.666113913600000e-4 5.751746259300000e-4 5.838672772170000e-4 5.926913011040000e-4
6.016486830350000e-4 6.107414384580000e-4 6.199716132810000e-4 6.293412843320000e-4
6.388525598279999e-4 6.485075798440000e-4 6.583085168020000e-4 6.682575759539999e-4
6.783569958790001e-4 6.886090489900000e-4 6.990160420430001e-4 7.095803166529999e-4
7.203042498290001e-4 7.311902545000000e-4 7.422407800620001e-4 7.534583129320000e-4
7.648453770999999e-4 7.764045347060000e-4 7.881383866069999e-4 8.000495729690000e-4
8.121407738620000e-4 8.244147098540001e-4 8.368741426340002e-4 8.495218756270001e-4
8.623607546259999e-4 8.753936684330000e-4 8.886235495079999e-4 9.020533746310001e-4
9.156861655680000e-4 9.295249897560002e-4 9.435729609879999e-4 9.578332401170000e-4
9.723090357660000e-4 9.870036050500000e-4 1.001920254310000e-3 1.017062339850000e-3
1.032433268710000e-3 1.048036499410000e-3 1.063875542750000e-3 1.079953962570000e-3
1.096275376590000e-3 1.112843457190000e-3 1.129661932270000e-3 1.146734586040000e-3
1.164065259940000e-3 1.181657853430000e-3 1.199516324920000e-3 1.217644692650000e-3
1.236047035570000e-3 1.254727494280000e-3 1.273690271980000e-3 1.292939635360000e-3
1.312479915610000e-3 1.332315509390000e-3 1.352450879770000e-3 1.372890557300000e-3
1.393639141010000e-3 1.414701299400000e-3 1.436081771550000e-3 1.457785368150000e-3
1.479816972620000e-3 1.502181542140000e-3 1.524884108850000e-3 1.547929780920000e-3
1.571323743720000e-3 1.595071260990000e-3 1.619177676030000e-3 1.643648412870000e-3
1.668488977540000e-3 1.693704959270000e-3 1.719302031760000e-3 1.745285954460000e-3
1.771662573860000e-3 1.798437824820000e-3 1.825617731870000e-3 1.853208410610000e-3
1.881216069070000e-3 1.909647009080000e-3 1.938507627720000e-3 1.967804418760000e-3
1.997543974090000e-3 2.027732985240000e-3 2.058378244870000e-3 2.089486648290000e-3
2.121065195020000e-3 2.153120990360000e-3 2.185661247020000e-3 2.218693286670001e-3
2.252224541670000e-3 2.286262556700000e-3 2.320814990450000e-3 2.355889617360000e-3
2.391494329380000e-3 2.427637137700000e-3 2.464326174630000e-3 2.501569695340000e-3
2.539376079790000e-3 2.577753834570000e-3 2.616711594830000e-3 2.656258126240000e-3
2.696402326940000e-3 2.737153229540001e-3 2.778520003160000e-3 2.820511955500000e-3
2.863138534940000e-3 2.906409332620000e-3 2.950334084660000e-3 2.994922674320000e-3
3.040185134220001e-3 3.086131648599999e-3 3.132772555610000e-3 3.180118349670000e-3
3.228179683780000e-3 3.276967371930000e-3 3.326492391560000e-3 3.376765886020000e-3
3.427799167050000e-3 3.479603717350000e-3 3.532191193170000e-3 3.585573426910000e-3
3.639762429790000e-3 3.694770394580000e-3 3.750609698290000e-3 3.807292905010000e-3
3.864832768689999e-3 3.923242236059999e-3 3.982534449469999e-3 4.042722749940000e-3
4.103820680090000e-3 4.165841987199999e-3 4.228800626329999e-3 4.292710763440001e-3
4.357586778580000e-3 4.423443269140001e-3 4.490295053090000e-3 4.558157172370001e-3
4.627044896240000e-3 4.696973724740000e-3 4.767959392140000e-3 4.840017870520000e-3
4.913165373340000e-3 4.987418359090000e-3 5.062793535020001e-3 5.139307860850000e-3
5.216978552630001e-3 5.295823086600000e-3 5.375859203099999e-3 5.457104910599999e-3
5.539578489730000e-3 5.623298497390000e-3 5.708283770930001e-3 5.794553432410000e-3
5.882126892850001e-3 5.971023856660000e-3 6.061264326030001e-3 6.152868605439999e-3
6.245857306240000e-3 6.340251351289999e-3 6.436071979650000e-3 6.533340751350001e-3
6.632079552280000e-3 6.732310599089999e-3 6.834056444180002e-3 6.937339980810000e-3
7.042184448200000e-3 7.148613436810001e-3 7.256650893590000e-3 7.366321127440000e-3
7.477648814619999e-3 7.590659004330000e-3 7.705377124329999e-3 7.821828986700002e-3
7.940040793590000e-3 8.060039143160001e-3 8.181851035529998e-3 8.305503878909999e-3
8.431025495700000e-3 8.558444128789999e-3 8.687788447919999e-3 8.819087556100001e-3
8.952370996190000e-3 9.087668757519999e-3 9.225011282650000e-3 9.364429474250000e-3
9.505954701980000e-3 9.649618809630001e-3 9.795454122220001e-3 9.943493453309999e-3
1.009377011240000e-2 1.024631791230000e-2 1.040117117700000e-2 1.055836474910000e-2
1.071793399770000e-2 1.087991482680000e-2 1.104434368260000e-2 1.121125756230000e-2
1.138069402230000e-2 1.155269118640000e-2 1.172728775480000e-2 1.190452301240000e-2
1.208443683790000e-2 1.226706971270000e-2 1.245246272990000e-2 1.264065760370000e-2
1.283169667890000e-2 1.302562293990000e-2 1.322248002110000e-2 1.342231221600000e-2
1.362516448780000e-2 1.383108247910000e-2 1.404011252230000e-2 1.425230165010000e-2
1.446769760590000e-2 1.468634885460000e-2 1.490830459380000e-2 1.513361476450000e-2
1.536233006230000e-2 1.559450194920000e-2 1.583018266480000e-2 1.606942523830000e-2
1.631228350020000e-2 1.655881209480000e-2 1.680906649190000e-2 1.706310300000000e-2
1.732097877810000e-2 1.758275184960000e-2 1.784848111450000e-2 1.811822636280000e-2
1.839204828860000e-2 1.867000850280000e-2 1.895216954760000e-2 1.923859491060000e-2
1.952934903860000e-2 1.982449735260000e-2 2.012410626200000e-2 2.042824318030000e-2
2.073697653950000e-2 2.105037580580000e-2 2.136851149560000e-2 2.169145519050000e-2
2.201927955450000e-2 2.235205834910000e-2 2.268986645130000e-2 2.303277986910000e-2
2.338087575950000e-2 2.373423244560000e-2 2.409292943420000e-2 2.445704743350000e-2
2.482666837170000e-2 2.520187541500000e-2 2.558275298660000e-2 2.596938678550000e-2
2.636186380600000e-2 2.676027235710000e-2 2.716470208240000e-2 2.757524398020000e-2
2.799199042430000e-2 2.841503518430000e-2 2.884447344710000e-2 2.928040183810000e-2
2.972291844310000e-2 3.017212283010000e-2 3.062811607200000e-2 3.109100076920000e-2
3.156088107280000e-2 3.203786270780000e-2 3.252205299710000e-2 3.301356088540000e-2
3.351249696430000e-2 3.401897349640000e-2 3.453310444100000e-2 3.505500547980000e-2
3.558479404270000e-2 3.612258933440000e-2 3.666851236110000e-2 3.722268595779999e-2
3.778523481580000e-2 3.835628551110000e-2 3.893596653240000e-2 3.952440831050000e-2
4.012174324720000e-2 4.072810574540000e-2 4.134363223920000e-2 4.196846122470000e-2
4.260273329100000e-2 4.324659115199999e-2 4.390017967850000e-2 4.456364593070000e-2
4.523713919110000e-2 4.592081099870000e-2 4.661481518260000e-2 4.731930789650000e-2
4.803444765429999e-2 4.876039536550000e-2 4.949731437130000e-2 5.024537048169999e-2
5.100473201240000e-2 5.177556982310000e-2 5.255805735530000e-2 5.335237067220000e-2
5.415868849759999e-2 5.497719225630000e-2 5.580806611530001e-2 5.665149702459999e-2
5.750767475970000e-2 5.837679196420000e-2 5.925904419320000e-2 6.015462995720000e-2
6.106375076670000e-2 6.198661117770000e-2 6.292341883770001e-2 6.387438453250000e-2
6.483972223320000e-2 6.581964914500000e-2 6.681438575550001e-2 6.782415588470001e-2
6.884918673500000e-2 6.988970894290000e-2 7.094595663010001e-2 7.201816745690000e-2
7.310658267519999e-2 7.421144718300000e-2 7.533300957950000e-2 7.647152222100000e-2
7.762724127760000e-2 7.880042679090000e-2 7.999134273279999e-2 8.120025706420000e-2
8.242744179600001e-2 8.367317305000000e-2 8.493773112090000e-2 8.622140053959999e-2
8.752447013730000e-2 8.884723310990001e-2 9.018998708480000e-2 9.155303418730000e-2
9.293668110880001e-2 9.434123917550000e-2 9.576702441909999e-2 9.721435764720001e-2
9.868356451590000e-2 1.001749756030000e-1 1.016889264820000e-1 1.032257577990000e-1
1.047858153460000e-1 1.063694501440000e-1 1.079770185180000e-1 1.096088821760000e-1
1.112654082940000e-1 1.129469695990000e-1 1.146539444490000e-1 1.163867169200000e-1
1.181456768930000e-1 1.199312201420000e-1 1.217437484220000e-1 1.235836695580000e-1
1.254513975420000e-1 1.273473526190000e-1 1.292719613870000e-1 1.312256568930000e-1
1.332088787250000e-1 1.352220731160000e-1 1.372656930450000e-1 1.393401983330000e-1
1.414460557540000e-1 1.435837391350000e-1 1.457537294620000e-1 1.479565149930000e-1
1.501925913650000e-1 1.524624617030000e-1 1.547666367380000e-1 1.571056349190000e-1
1.594799825310000e-1 1.618902138120000e-1 1.643368710740000e-1 1.668205048250000e-1
1.693416738940000e-1 1.719009455540000e-1 1.744988956520000e-1 1.771361087370000e-1
1.798131781940000e-1 1.825307063750000e-1 1.852893047350000e-1 1.880895939700000e-1
1.909322041570000e-1 1.938177748950000e-1 1.967469554510000e-1 1.997204049020000e-1
2.027387922860000e-1 2.058027967540000e-1 2.089131077200000e-1 2.120704250160000e-1
2.152754590520000e-1 2.185289309750000e-1 2.218315728290000e-1 2.251841277230000e-1
2.285873499960000e-1 2.320420053870000e-1 2.355488712070000e-1 2.391087365180000e-1
2.427224023030000e-1 2.463906816530000e-1 2.501143999460000e-1 2.538943950330000e-1
2.577315174310000e-1 2.616266305070000e-1 2.655806106800000e-1 2.695943476090000e-1
2.736687444050000e-1 2.778047178220000e-1 2.820031984730000e-1 2.862651310340000e-1
2.905914744560000e-1 2.949832021860000e-1 2.994413023820000e-1 3.039667781330000e-1
3.085606476920000e-1 3.132239446990000e-1 3.179577184140000e-1 3.227630339570000e-1
3.276409725450000e-1 3.325926317340000e-1 3.376191256680000e-1 3.427215853300000e-1
3.479011587940000e-1 3.531590114870000e-1 3.584963264470000e-1 3.639143045930000e-1
3.694141649930000e-1 3.749971451390000e-1 3.806645012240000e-1 3.864175084280000e-1
3.922574612010000e-1 3.981856735580000e-1 4.042034793720000e-1 4.103122326740000e-1
4.165133079589999e-1 4.228081004950000e-1 4.291980266380000e-1 4.356845241469999e-1
4.422690525130000e-1 4.489530932810000e-1 4.557381503890000e-1 4.626257505040000e-1
4.696174433640000e-1 4.767148021300000e-1 4.839194237380000e-1 4.912329292580000e-1
4.986569642590000e-1 5.061931991810001e-1 5.138433297090001e-1 5.216090771530000e-1
5.294921888400000e-1 5.374944385030000e-1 5.456176266829999e-1 5.538635811310000e-1
5.622341572210000e-1 5.707312383680000e-1 5.793567364510000e-1 5.881125922450000e-1
5.970007758530000e-1 6.060232871540000e-1 6.151821562510000e-1 6.244794439290001e-1
6.339172421170000e-1 6.434976743580000e-1 6.532228962900000e-1 6.630950961300000e-1
6.731164951650000e-1 6.832893482499999e-1 6.936159443210000e-1 7.040986069060001e-1
7.147396946480001e-1 7.255416018370000e-1 7.365067589470000e-1 7.476376331850000e-1
7.589367290440000e-1 7.704065888690001e-1 7.820497934270000e-1 7.938689624880000e-1
8.058667554150000e-1 8.180458717610000e-1 8.304090518790000e-1 8.429590775379999e-1
8.556987725450000e-1 8.686310033860000e-1 8.817586798680001e-1 8.950847557720000e-1
9.086122295230000e-1 9.223441448579999e-1 9.362835915170001e-1 9.504337059339999e-1
9.647976719450000e-1 9.793787215020000e-1 9.941801354039999e-1 1.009205244030000e0
1.024457428090000e0 1.039940119400000e0 1.055656801620000e0 1.071611011080000e0
1.087806337530000e0 1.104246425000000e0 1.120934972570000e0 1.137875735240000e0
1.155072524750000e0 1.172529210450000e0 1.190249720180000e0 1.208238041110000e0
1.226498220690000e0 1.245034367550000e0 1.263850652400000e0 1.282951308970000e0
1.302340635000000e0 1.322022993170000e0 1.342002812090000e0 1.362284587310000e0
1.382872882300000e0 1.403772329520000e0 1.424987631450000e0 1.446523561600000e0
1.468384965650000e0 1.490576762520000e0 1.513103945440000e0 1.535971583140000e0
1.559184820930000e0 1.582748881870000e0 1.606669067990000e0 1.630950761440000e0
1.655599425680000e0 1.680620606780000e0 1.706019934600000e0 1.731803124110000e0
1.757975976620000e0 1.784544381150000e0 1.811514315690000e0 1.838891848600000e0
1.866683139930000e0 1.894894442840000e0 1.923532104990000e0 1.952602569990000e0
1.982112378800000e0 2.012068171250000e0 2.042476687540000e0 2.073344769690000e0
2.104679363170000e0 2.136487518380000e0 2.168776392290000e0 2.201553250050000e0
2.234825466570000e0 2.268600528250000e0 2.302886034620000e0 2.337689700060000e0
2.373019355550000e0 2.408882950410000e0 2.445288554090000e0 2.482244358010000e0
2.519758677390000e0 2.557839953090000e0 2.596496753580000e0 2.635737776790000e0
2.675571852120000e0 2.716007942410000e0 2.757055145940000e0 2.798722698510000e0
2.841019975490000e0 2.883956493960000e0 2.927541914800000e0 2.971786044920000e0
3.016698839440000e0 3.062290403930000e0 3.108570996680000e0 3.155551031010000e0
3.203241077640000e0 3.251651867030000e0 3.300794291800000e0 3.350679409220000e0
3.401318443640000e0 3.452722789050000e0 3.504904011660000e0 3.557873852460000e0
3.611644229890000e0 3.666227242510000e0 3.721635171720000e0 3.777880484540000e0
3.834975836420000e0 3.892934074030000e0 3.951768238240000e0 4.011491566970000e0
4.072117498230000e0 4.133659673100000e0 4.196131938840000e0 4.259548351970000e0
4.323923181440000e0 4.389270911880000e0 4.455606246790000e0 4.522944111900000e0
4.591299658510000e0 4.660688266920000e0 4.731125549850000e0 4.802627355990000e0
4.875209773550000e0 4.948889133870000e0 5.023682015130000e0 5.099605246030000e0
5.176675909630000e0 5.254911347150000e0 5.334329161890000e0 5.414947223190000e0
5.496783670470000e0 5.579856917260000e0 5.664185655390000e0 5.749788859200000e0
5.836685789750000e0 5.924895999240000e0 6.014439335310000e0 6.105335945620000e0
6.197606282260000e0 6.291271106470000e0 6.386351493220000e0 6.482868835990000e0
6.580844851610000e0 6.680301585070000e0 6.781261414580000e0 6.883747056520000e0
6.987781570580000e0 7.093388364980000e0 7.200591201680000e0 7.309414201780000e0
7.419881850920000e0 7.532019004770000e0 7.645850894680000e0 7.761403133290000e0
7.878701720350000e0 7.997773048540000e0 8.118643909410000e0 8.241341499400001e0
8.365893426000000e0 8.492327713920000e0 8.620672811390000e0 8.750957596619999e0
8.883211384230000e0 9.017463931880000e0 9.153745446949999e0 9.292086593360001e0
9.432518498460000e0 9.575072760019999e0 9.719781453340000e0 9.866677138500000e0
1.001579286760000e1 1.016716219240000e1 1.032081917160000e1 1.047679837860000e1
1.063513490950000e1 1.079586439060000e1 1.095902298670000e1 1.112464740920000e1
1.129277492430000e1 1.146344336150000e1 1.163669112170000e1 1.181255718650000e1
1.199108112660000e1 1.217230311040000e1 1.235626391390000e1 1.254300492880000e1
1.273256817280000e1 1.292499629830000e1 1.312033260250000e1 1.331862103690000e1
1.351990621720000e1 1.372423343350000e1 1.393164866020000e1 1.414219856660000e1
1.435593052730000e1 1.457289263300000e1 1.479313370100000e1 1.501670328650000e1
1.524365169360000e1 1.547402998660000e1 1.570789000170000e1 1.594528435820000e1
1.618626647110000e1 1.643089056210000e1 1.667921167290000e1 1.693128567660000e1
1.718716929110000e1 1.744692009110000e1 1.771059652180000e1 1.797825791140000e1
1.824996448490000e1 1.852577737740000e1 1.880575864800000e1 1.908997129360000e1
1.937847926330000e1 1.967134747250000e1 1.996864181790000e1 2.027042919200000e1
2.057677749820000e1 2.088775566610000e1 2.120343366720000e1 2.152388253030000e1
2.184917435770000e1 2.217938234160000e1 2.251458078010000e1 2.285484509420000e1
2.320025184490000e1 2.355087875010000e1 2.390680470240000e1 2.426810978660000e1
2.463487529790000e1 2.500718376010000e1 2.538511894410000e1 2.576876588700000e1
2.615821091090000e1 2.655354164270000e1 2.695484703330000e1 2.736221737820000e1
2.777574433750000e1 2.819552095640000e1 2.862164168650000e1 2.905420240670000e1
2.949330044500000e1 2.993903460040000e1 3.039150516480000e1 3.085081394620000e1
3.131706429080000e1 3.179036110700000e1 3.227081088850000e1 3.275852173870000e1
3.325360339450000e1 3.375616725130000e1 3.426632638810000e1 3.478419559300000e1
3.530989138860000e1 3.584353205870000e1 3.638523767480001e1 3.693513012280000e1
3.749333313090000e1 3.805997229720000e1 3.863517511780000e1 3.921907101580000e1
3.981179137020000e1 4.041346954570001e1 4.102424092220001e1 4.164424292610000e1
4.227361506030000e1 4.291249893630000e1 4.356103830550000e1 4.421937909220000e1
4.488766942570000e1 4.556605967410000e1 4.625470247830000e1 4.695375278560000e1
4.766336788540000e1 4.838370744410000e1 4.911493354100000e1 4.985721070520000e1
5.061070595220000e1 5.137558882150000e1 5.215203141500001e1 5.294020843560000e1
5.374029722650000e1 5.455247781090001e1 5.537693293300000e1 5.621384809870000e1
5.706341161730000e1 5.792581464420000e1 5.880125122390001e1 5.968991833310000e1
6.059201592580000e1
</PP_R>
<PP_RAB>
5.066010919749999e-7 5.142573870120000e-7 5.220293921310000e-7 5.299188560659999e-7
5.379275539790001e-7 5.460572878599999e-7 5.543098869359998e-7 5.626872080740000e-7
5.711911362080001e-7 5.798235847580000e-7 5.885864960600000e-7 5.974818418069999e-7
6.065116234890001e-7 6.156778728450001e-7 6.249826523189999e-7 6.344280555280001e-7
6.440162077250000e-7 6.537492662860000e-7 6.636294211899997e-7 6.736588955130002e-7
6.838399459300000e-7 6.941748632190001e-7 7.046659727820002e-7 7.153156351610001e-7
7.261262465760002e-7 7.371002394590000e-7 7.482400830070000e-7 7.595482837290000e-7
7.710273860200000e-7 7.826799727250000e-7 7.945086657270000e-7 8.065161265290000e-7
8.187050568629999e-7 8.310781992889998e-7 8.436383378150001e-7 8.563882985269998e-7
8.693309502189999e-7 8.824692050420001e-7 8.958060191589999e-7 9.093443934100000e-7
9.230873739860000e-7 9.370380531149999e-7 9.511995697590001e-7 9.655751103190001e-7
9.801679093519999e-7 9.949812503009998e-7 1.010018466230000e-6 1.025282940570000e-6
1.040778107900000e-6 1.056507454700000e-6 1.072474520130000e-6 1.088682896850000e-6
1.105136231810000e-6 1.121838227090000e-6 1.138792640710000e-6 1.156003287470000e-6
1.173474039850000e-6 1.191208828840000e-6 1.209211644840000e-6 1.227486538560000e-6
1.246037621940000e-6 1.264869069030000e-6 1.283985117000000e-6 1.303390067040000e-6
1.323088285340000e-6 1.343084204090000e-6 1.363382322450000e-6 1.383987207590000e-6
1.404903495680000e-6 1.426135892990000e-6 1.447689176890000e-6 1.469568196970000e-6
1.491777876090000e-6 1.514323211520000e-6 1.537209276060000e-6 1.560441219180000e-6
1.584024268160000e-6 1.607963729270000e-6 1.632264989010000e-6 1.656933515260000e-6
1.681974858540000e-6 1.707394653260000e-6 1.733198618980000e-6 1.759392561700000e-6
1.785982375170000e-6 1.812974042210000e-6 1.840373636060000e-6 1.868187321730000e-6
1.896421357440000e-6 1.925082095960000e-6 1.954175986060000e-6 1.983709574010000e-6
2.013689504980001e-6 2.044122524590000e-6 2.075015480380000e-6 2.106375323420000e-6
2.138209109780000e-6 2.170524002220001e-6 2.203327271720000e-6 2.236626299140000e-6
2.270428576920000e-6 2.304741710710000e-6 2.339573421110000e-6 2.374931545400000e-6
2.410824039300000e-6 2.447258978779999e-6 2.484244561860000e-6 2.521789110440000e-6
2.559901072220000e-6 2.598589022530001e-6 2.637861666340000e-6 2.677727840150000e-6
2.718196514020000e-6 2.759276793580000e-6 2.800977922050000e-6 2.843309282370000e-6
2.886280399280000e-6 2.929900941450000e-6 2.974180723700000e-6 3.019129709160000e-6
3.064758011530000e-6 3.111075897390000e-6 3.158093788460000e-6 3.205822263940000e-6
3.254272062960000e-6 3.303454086930001e-6 3.353379402000000e-6 3.404059241580000e-6
3.455505008860000e-6 3.507728279340000e-6 3.560740803480000e-6 3.614554509320000e-6
3.669181505170000e-6 3.724634082350000e-6 3.780924717910000e-6 3.838066077470001e-6
3.896071018100000e-6 3.954952591150001e-6 4.014724045210000e-6 4.075398829119999e-6
4.136990594959999e-6 4.199513201130000e-6 4.262980715500000e-6 4.327407418510000e-6
4.392807806440000e-6 4.459196594660001e-6 4.526588720930000e-6 4.594999348759999e-6
4.664443870830000e-6 4.734937912440000e-6 4.806497335070000e-6 4.879138239870001e-6
4.952876971360000e-6 5.027730121060000e-6 5.103714531250001e-6 5.180847298740000e-6
5.259145778730000e-6 5.338627588710000e-6 5.419310612409999e-6 5.501213003869999e-6
5.584353191460000e-6 5.668749882080000e-6 5.754422065339999e-6 5.841389017839999e-6
5.929670307510001e-6 6.019285798020000e-6 6.110255653230000e-6 6.202600341730000e-6
6.296340641480000e-6 6.391497644439998e-6 6.488092761330000e-6 6.586147726469998e-6
6.685684602620001e-6 6.786725786019999e-6 6.889294011359999e-6 6.993412356910000e-6
7.099104249740000e-6 7.206393470979999e-6 7.315304161159998e-6 7.425860825630000e-6
7.538088340110000e-6 7.652011956270000e-6 7.767657307410001e-6 7.885050414210002e-6
8.004217690619999e-6 8.125185949770000e-6 8.247982410050001e-6 8.372634701160003e-6
8.499170870399999e-6 8.627619388949999e-6 8.758009158250001e-6 8.890369516570001e-6
9.024730245530000e-6 9.161121576870002e-6 9.299574199209999e-6 9.440119264980000e-6
9.582788397410001e-6 9.727613697660001e-6 9.874627752030001e-6 1.002386363930000e-5
1.017535493820000e-5 1.032913573490000e-5 1.048524063060000e-5 1.064370474980000e-5
1.080456374740000e-5 1.096785381750000e-5 1.113361170090000e-5 1.130187469400000e-5
1.147268065650000e-5 1.164606802060000e-5 1.182207579910000e-5 1.200074359450000e-5
1.218211160790000e-5 1.236622064780000e-5 1.255311213950000e-5 1.274282813440000e-5
1.293541131940000e-5 1.313090502650000e-5 1.332935324260000e-5 1.353080061950000e-5
1.373529248350000e-5 1.394287484630000e-5 1.415359441480000e-5 1.436749860180000e-5
1.458463553650000e-5 1.480505407580000e-5 1.502880381460000e-5 1.525593509780000e-5
1.548649903070000e-5 1.572054749120000e-5 1.595813314119999e-5 1.619930943860000e-5
1.644413064880000e-5 1.669265185790000e-5 1.694492898400000e-5 1.720101879070000e-5
1.746097889910000e-5 1.772486780140000e-5 1.799274487380000e-5 1.826467038970000e-5
1.854070553350000e-5 1.882091241430000e-5 1.910535407970000e-5 1.939409453040000e-5
1.968719873420000e-5 1.998473264080000e-5 2.028676319650000e-5 2.059335835960000e-5
2.090458711510000e-5 2.122051949090000e-5 2.154122657320000e-5 2.186678052230000e-5
2.219725458930000e-5 2.253272313220000e-5 2.287326163280000e-5 2.321894671380000e-5
2.356985615580000e-5 2.392606891490000e-5 2.428766514040000e-5 2.465472619300000e-5
2.502733466310000e-5 2.540557438900000e-5 2.578953047640000e-5 2.617928931680000e-5
2.657493860790000e-5 2.697656737220000e-5 2.738426597800000e-5 2.779812615920001e-5
2.821824103610000e-5 2.864470513620000e-5 2.907761441580000e-5 2.951706628130000e-5
2.996315961130000e-5 3.041599477860000e-5 3.087567367300000e-5 3.134229972430000e-5
3.181597792530000e-5 3.229681485550000e-5 3.278491870520000e-5 3.328039930009999e-5
3.378336812510000e-5 3.429393835050000e-5 3.481222485680001e-5 3.533834426040000e-5
3.587241494060000e-5 3.641455706560000e-5 3.696489261950000e-5 3.752354543009999e-5
3.809064119679999e-5 3.866630751850000e-5 3.925067392250000e-5 3.984387189369999e-5
4.044603490409999e-5 4.105729844310000e-5 4.167780004739999e-5 4.230767933259999e-5
4.294707802410000e-5 4.359613998930000e-5 4.425501126990000e-5 4.492384011480000e-5
4.560277701330001e-5 4.629197472890000e-5 4.699158833420000e-5 4.770177524510000e-5
4.842269525670001e-5 4.915451057889999e-5 4.989738587350000e-5 5.065148829029999e-5
5.141698750570001e-5 5.219405576030000e-5 5.298286789750000e-5 5.378360140360000e-5
5.459643644690000e-5 5.542155591870000e-5 5.625914547440001e-5 5.710939357520001e-5
5.797249153040001e-5 5.884863354089999e-5 5.973801674210001e-5 6.064084124910000e-5
6.155731020130000e-5 6.248762980790001e-5 6.343200939490000e-5 6.439066145160000e-5
6.536380167879998e-5 6.635164903710001e-5 6.735442579630000e-5 6.837235758549999e-5
6.940567344370001e-5 7.045460587110000e-5 7.151939088210000e-5 7.260026805780000e-5
7.369748060010000e-5 7.481127538640000e-5 7.594190302530000e-5 7.708961791279999e-5
7.825467828950002e-5 7.943734629890001e-5 8.063788804650001e-5 8.185657365900001e-5
8.309367734589999e-5 8.434947746080001e-5 8.562425656400002e-5 8.691830148610000e-5
8.823190339269999e-5 8.956535784989999e-5 9.091896489040000e-5 9.229302908159999e-5
9.368785959369998e-5 9.510377026939999e-5 9.654107969469999e-5 9.800011127020001e-5
9.948119328419999e-5 1.009846589860000e-4 1.025108466630000e-4 1.040600997120000e-4
1.056327667230000e-4 1.072292015520000e-4 1.088497634040000e-4 1.104948169120000e-4
1.121647322190000e-4 1.138598850650000e-4 1.155806568650000e-4 1.173274348010000e-4
1.191006119040000e-4 1.209005871470000e-4 1.227277655330000e-4 1.245825581840000e-4
1.264653824350000e-4 1.283766619320000e-4 1.303168267190000e-4 1.322863133410000e-4
1.342855649430000e-4 1.363150313630000e-4 1.383751692400000e-4 1.404664421140000e-4
1.425893205300000e-4 1.447442821440000e-4 1.469318118330000e-4 1.491524018000000e-4
1.514065516860000e-4 1.536947686840000e-4 1.560175676550000e-4 1.583754712360000e-4
1.607690099660000e-4 1.631987224020000e-4 1.656651552390000e-4 1.681688634350000e-4
1.707104103340000e-4 1.732903677960000e-4 1.759093163220000e-4 1.785678451860000e-4
1.812665525680000e-4 1.840060456900000e-4 1.867869409480000e-4 1.896098640560000e-4
1.924754501830000e-4 1.953843440990000e-4 1.983372003160000e-4 2.013346832400000e-4
2.043774673170000e-4 2.074662371870000e-4 2.106016878350000e-4 2.137845247520000e-4
2.170154640879999e-4 2.202952328190000e-4 2.236245689080000e-4 2.270042214670000e-4
2.304349509340000e-4 2.339175292370000e-4 2.374527399720000e-4 2.410413785740000e-4