<UPF version="2.0.1">
<PP_INFO>
Generated by new atomic code, or converted to UPF format
Author:
Generation date:
Pseudopotential type: NC
Element: Te
Functional:  SLA  PW   PBE  PBE
Suggested minimum cutoff for wavefunctions:   0. Ry
Suggested minimum cutoff for charge density:   0. Ry
The Pseudo was generated with a Scalar-Relativistic Calculation
L component and cutoff radius for Local Potential:  0   0.0000
Valence configuration:
nl pn  l   occ       Rcut    Rcut US       E pseu
5S  1  0  2.00      2.400      2.400     0.000000
5P  0  1  3.00      2.400      2.400     0.000000
5D  0  2  1.00      2.400      2.400     0.000000
Generation configuration: not available.
</PP_INFO>
<!--
END OF HUMAN READABLE SECTION
-->
<PP_HEADER generated="Generated by new atomic code, or converted to UPF format" author="" date="" comment="" element="Te" pseudo_type="NC" relativistic="scalar" is_ultrasoft="false" is_paw="false" is_coulomb="false" has_so="false" has_wfc="false" has_gipaw="false" paw_as_gipaw="false" core_correction="false" functional=" SLA  PW   PBE  PBE" z_valence="6.000000000000e0" total_psenergy="-1.554533017755e1" wfc_cutoff="0.000000000000e0" rho_cutoff="0.000000000000e0" l_max="2" l_max_rho="0" l_local="0" mesh_size="1191" number_of_wfc="3" number_of_proj="3"/>
<PP_MESH dx="1.250000000000e-2" mesh="1191" xmin="-6.999999999999e0" rmax="5.059011904420e1" zmesh="5.200000000000e1">
<PP_R>
1.753619164530000e-5 1.775676978210000e-5 1.798012245030000e-5 1.820628454930000e-5
1.843529141720000e-5 1.866717883690000e-5 1.890198304130000e-5 1.913974071900000e-5
1.938048902020000e-5 1.962426556210000e-5 1.987110843550000e-5 2.012105621000000e-5
2.037414794050000e-5 2.063042317309999e-5 2.088992195120000e-5 2.115268482220000e-5
2.141875284320000e-5 2.168816758790000e-5 2.196097115290000e-5 2.223720616430000e-5
2.251691578440000e-5 2.280014371850000e-5 2.308693422140000e-5 2.337733210470000e-5
2.367138274370000e-5 2.396913208450000e-5 2.427062665090000e-5 2.457591355200000e-5
2.488504048970000e-5 2.519805576560000e-5 2.551500828900000e-5 2.583594758430000e-5
2.616092379900000e-5 2.648998771130000e-5 2.682319073800000e-5 2.716058494290000e-5
2.750222304440000e-5 2.784815842420000e-5 2.819844513540000e-5 2.855313791109999e-5
2.891229217260000e-5 2.927596403870000e-5 2.964421033360000e-5 3.001708859679999e-5
3.039465709110000e-5 3.077697481240000e-5 3.116410149860000e-5 3.155609763910000e-5
3.195302448410000e-5 3.235494405420000e-5 3.276191915000000e-5 3.317401336250001e-5
3.359129108190000e-5 3.401381750900000e-5 3.444165866430000e-5 3.487488139870001e-5
3.531355340440001e-5 3.575774322460000e-5 3.620752026500000e-5 3.666295480400000e-5
3.712411800440001e-5 3.759108192370000e-5 3.806391952599999e-5 3.854270469320000e-5
3.902751223650000e-5 3.951841790790001e-5 4.001549841250000e-5 4.051883142010000e-5
4.102849557760000e-5 4.154457052110001e-5 4.206713688809999e-5 4.259627633090000e-5
4.313207152860000e-5 4.367460620010000e-5 4.422396511780000e-5 4.478023412000000e-5
4.534350012480001e-5 4.591385114379999e-5 4.649137629549999e-5 4.707616581930001e-5
4.766831108970000e-5 4.826790463080001e-5 4.887504013020000e-5 4.948981245400000e-5
5.011231766170000e-5 5.074265302100000e-5 5.138091702310001e-5 5.202720939800000e-5
5.268163113020002e-5 5.334428447440000e-5 5.401527297160000e-5 5.469470146520000e-5
5.538267611710000e-5 5.607930442480001e-5 5.678469523800000e-5 5.749895877530000e-5
5.822220664179999e-5 5.895455184670001e-5 5.969610882020000e-5 6.044699343210000e-5
6.120732300980000e-5 6.197721635620001e-5 6.275679376880000e-5 6.354617705799999e-5
6.434548956680000e-5 6.515485618910000e-5 6.597440339030001e-5 6.680425922630001e-5
6.764455336370000e-5 6.849541710020000e-5 6.935698338490002e-5 7.022938683940000e-5
7.111276377850000e-5 7.200725223159999e-5 7.291299196440000e-5 7.383012450050000e-5
7.475879314380000e-5 7.569914300060000e-5 7.665132100249999e-5 7.761547592920000e-5
7.859175843200000e-5 7.958032105690000e-5 8.058131826889998e-5 8.159490647590001e-5
8.262124405290001e-5 8.366049136750000e-5 8.471281080400001e-5 8.577836678959999e-5
8.685732581950001e-5 8.794985648319999e-5 8.905612949100000e-5 9.017631770019998e-5
9.131059614249997e-5 9.245914205129999e-5 9.362213488900000e-5 9.479975637589998e-5
9.599219051749998e-5 9.719962363420001e-5 9.842224438990000e-5 9.966024382140002e-5
1.009138153690000e-4 1.021831549050000e-4 1.034684607680000e-4 1.047699337870000e-4
1.060877773220000e-4 1.074221972880000e-4 1.087734021910000e-4 1.101416031600000e-4
1.115270139780000e-4 1.129298511190000e-4 1.143503337780000e-4 1.157886839100000e-4
1.172451262600000e-4 1.187198883990000e-4 1.202132007620000e-4 1.217252966820000e-4
1.232564124280000e-4 1.248067872390000e-4 1.263766633640000e-4 1.279662861000000e-4
1.295759038290000e-4 1.312057680560000e-4 1.328561334510000e-4 1.345272578880000e-4
1.362194024820000e-4 1.379328316350000e-4 1.396678130730000e-4 1.414246178920000e-4
1.432035205950000e-4 1.450047991390000e-4 1.468287349780000e-4 1.486756131060000e-4
1.505457221000000e-4 1.524393541710000e-4 1.543568052000000e-4 1.562983747940000e-4
1.582643663270000e-4 1.602550869900000e-4 1.622708478360000e-4 1.643119638320000e-4
1.663787539060000e-4 1.684715410000000e-4 1.705906521140000e-4 1.727364183650000e-4
1.749091750330000e-4 1.771092616150000e-4 1.793370218790000e-4 1.815928039190000e-4
1.838769602030000e-4 1.861898476360000e-4 1.885318276120000e-4 1.909032660690000e-4
1.933045335510000e-4 1.957360052580000e-4 1.981980611150000e-4 2.006910858230000e-4
2.032154689200000e-4 2.057716048480000e-4 2.083598930080000e-4 2.109807378260000e-4
2.136345488120000e-4 2.163217406320000e-4 2.190427331640000e-4 2.217979515680000e-4
2.245878263540000e-4 2.274127934440000e-4 2.302732942460000e-4 2.331697757190000e-4
2.361026904440000e-4 2.390724966940000e-4 2.420796585080000e-4 2.451246457620000e-4
2.482079342400000e-4 2.513300057130000e-4 2.544913480100001e-4 2.576924550990000e-4
2.609338271580000e-4 2.642159706580000e-4 2.675393984410000e-4 2.709046298000000e-4
2.743121905580001e-4 2.777626131540000e-4 2.812564367230000e-4 2.847942071829999e-4
2.883764773170001e-4 2.920038068620000e-4 2.956767625970000e-4 2.993959184270000e-4
3.031618554780000e-4 3.069751621860000e-4 3.108364343880000e-4 3.147462754150000e-4
3.187052961880000e-4 3.227141153120000e-4 3.267733591720001e-4 3.308836620360000e-4
3.350456661440000e-4 3.392600218199999e-4 3.435273875640000e-4 3.478484301610001e-4
3.522238247830000e-4 3.566542550950000e-4 3.611404133590001e-4 3.656830005480000e-4
3.702827264500000e-4 3.749403097810000e-4 3.796564782980000e-4 3.844319689120001e-4
3.892675278040000e-4 3.941639105390000e-4 3.991218821870000e-4 4.041422174400000e-4
4.092257007380001e-4 4.143731263839999e-4 4.195852986740000e-4 4.248630320200000e-4
4.302071510800001e-4 4.356184908820000e-4 4.410978969599999e-4 4.466462254820000e-4
4.522643433850000e-4 4.579531285120001e-4 4.637134697460000e-4 4.695462671540001e-4
4.754524321220000e-4 4.814328874990000e-4 4.874885677450000e-4 4.936204190710000e-4
4.998293995910000e-4 5.061164794730000e-4 5.124826410840000e-4 5.189288791499999e-4
5.254562009090000e-4 5.320656262690000e-4 5.387581879659999e-4 5.455349317250000e-4
5.523969164280000e-4 5.593452142720000e-4 5.663809109440000e-4 5.735051057859999e-4
5.807189119679999e-4 5.880234566610000e-4 5.954198812150000e-4 6.029093413370000e-4
6.104930072709999e-4 6.181720639780001e-4 6.259477113290001e-4 6.338211642829999e-4
6.417936530830000e-4 6.498664234480001e-4 6.580407367630001e-4 6.663178702820001e-4
6.746991173240000e-4 6.831857874760000e-4 6.917792067969999e-4 7.004807180260000e-4
7.092916807930000e-4 7.182134718280000e-4 7.272474851790001e-4 7.363951324300000e-4
7.456578429179999e-4 7.550370639609999e-4 7.645342610810001e-4 7.741509182350002e-4
7.838885380459999e-4 7.937486420350000e-4 8.037327708639999e-4 8.138424845739999e-4
8.240793628280001e-4 8.344450051590000e-4 8.449410312190000e-4 8.555690810350001e-4
8.663308152610000e-4 8.772279154390000e-4 8.882620842630001e-4 8.994350458450000e-4
9.107485459829999e-4 9.222043524349999e-4 9.338042551920001e-4 9.455500667649998e-4
9.574436224589999e-4 9.694867806669999e-4 9.816814231570000e-4 9.940294553659999e-4
1.006532806700000e-3 1.019193430830000e-3 1.032013306010000e-3 1.044994435370000e-3
1.058138847240000e-3 1.071448595450000e-3 1.084925759690000e-3 1.098572445780000e-3
1.112390786050000e-3 1.126382939650000e-3 1.140551092870000e-3 1.154897459530000e-3
1.169424281250000e-3 1.184133827910000e-3 1.199028397880000e-3 1.214110318480000e-3
1.229381946280000e-3 1.244845667520000e-3 1.260503898420000e-3 1.276359085630000e-3
1.292413706530000e-3 1.308670269710000e-3 1.325131315280000e-3 1.341799415320000e-3
1.358677174240000e-3 1.375767229230000e-3 1.393072250660000e-3 1.410594942460000e-3
1.428338042580000e-3 1.446304323440000e-3 1.464496592280000e-3 1.482917691700000e-3
1.501570500020000e-3 1.520457931790000e-3 1.539582938210000e-3 1.558948507590000e-3
1.578557665840000e-3 1.598413476950000e-3 1.618519043410000e-3 1.638877506760000e-3
1.659492048060000e-3 1.680365888370000e-3 1.701502289270000e-3 1.722904553360000e-3
1.744576024800000e-3 1.766520089780000e-3 1.788740177130000e-3 1.811239758760000e-3
1.834022350300000e-3 1.857091511560000e-3 1.880450847140000e-3 1.904104007000000e-3
1.928054686980000e-3 1.952306629420000e-3 1.976863623760000e-3 2.001729507050000e-3
2.026908164650000e-3 2.052403530780000e-3 2.078219589130001e-3 2.104360373520000e-3
2.130829968510000e-3 2.157632510010000e-3 2.184772185980000e-3 2.212253237040000e-3
2.240079957180000e-3 2.268256694370000e-3 2.296787851280000e-3 2.325677885970000e-3
2.354931312560000e-3 2.384552701950000e-3 2.414546682560000e-3 2.444917941000000e-3
2.475671222840000e-3 2.506811333350000e-3 2.538343138230000e-3 2.570271564390000e-3
2.602601600700000e-3 2.635338298820000e-3 2.668486773900000e-3 2.702052205480000e-3
2.736039838200000e-3 2.770454982720000e-3 2.805303016470000e-3 2.840589384520000e-3
2.876319600440000e-3 2.912499247140000e-3 2.949133977790000e-3 2.986229516610000e-3
3.023791659880000e-3 3.061826276740000e-3 3.100339310190000e-3 3.139336777960000e-3
3.178824773490000e-3 3.218809466860000e-3 3.259297105760000e-3 3.300294016460001e-3
3.341806604820000e-3 3.383841357250000e-3 3.426404841790001e-3 3.469503709049999e-3
3.513144693320000e-3 3.557334613600000e-3 3.602080374650000e-3 3.647388968090000e-3
3.693267473480000e-3 3.739723059420000e-3 3.786762984699999e-3 3.834394599390000e-3
3.882625346050000e-3 3.931462760820001e-3 3.980914474640000e-3 4.030988214440000e-3
4.081691804360000e-3 4.133033166930000e-3 4.185020324329999e-3 4.237661399680000e-3
4.290964618240000e-3 4.344938308750001e-3 4.399590904720001e-3 4.454930945710000e-3
4.510967078730000e-3 4.567708059530000e-3 4.625162754009999e-3 4.683340139580000e-3
4.742249306570000e-3 4.801899459670000e-3 4.862299919320000e-3 4.923460123230000e-3
4.985389627809999e-3 5.048098109650000e-3 5.111595367090001e-3 5.175891321720000e-3
5.240996019880000e-3 5.306919634350001e-3 5.373672465799999e-3 5.441264944500000e-3
5.509707631930000e-3 5.579011222379999e-3 5.649186544680001e-3 5.720244563880001e-3
5.792196382929999e-3 5.865053244439999e-3 5.938826532460000e-3 6.013527774210000e-3
6.089168641900001e-3 6.165760954590001e-3 6.243316679970000e-3 6.321847936280001e-3
6.401366994190000e-3 6.481886278720000e-3 6.563418371170000e-3 6.645976011099998e-3
6.729572098289999e-3 6.814219694820000e-3 6.899932027040000e-3 6.986722487670000e-3
7.074604637909999e-3 7.163592209520000e-3 7.253699106979999e-3 7.344939409690000e-3
7.437327374130000e-3 7.530877436090000e-3 7.625604212979999e-3 7.721522506039999e-3
7.818647302700001e-3 7.916993778909999e-3 8.016577301509999e-3 8.117413430620001e-3
8.219517922090001e-3 8.322906729960000e-3 8.427596008940000e-3 8.533602116939999e-3
8.640941617640001e-3 8.749631283039999e-3 8.859688096130000e-3 8.971129253519999e-3
9.083972168100001e-3 9.198234471810000e-3 9.313934018369999e-3 9.431088886080000e-3
9.549717380600001e-3 9.669838037900000e-3 9.791469627070002e-3 9.914631153280000e-3
1.003934186080000e-2 1.016562123590000e-2 1.029348901000000e-2 1.042296516270000e-2
1.055406992490000e-2 1.068682378200000e-2 1.082124747710000e-2 1.095736201410000e-2
1.109518866120000e-2 1.123474895410000e-2 1.137606469940000e-2 1.151915797790000e-2
1.166405114830000e-2 1.181076685050000e-2 1.195932800890000e-2 1.210975783680000e-2
1.226207983890000e-2 1.241631781590000e-2 1.257249586790000e-2 1.273063839790000e-2
1.289077011610000e-2 1.305291604330000e-2 1.321710151520000e-2 1.338335218610000e-2
1.355169403310000e-2 1.372215335970000e-2 1.389475680080000e-2 1.406953132590000e-2
1.424650424390000e-2 1.442570320710000e-2 1.460715621590000e-2 1.479089162250000e-2
1.497693813600000e-2 1.516532482660000e-2 1.535608113000000e-2 1.554923685230000e-2
1.574482217460000e-2 1.594286765730000e-2 1.614340424560000e-2 1.634646327360000e-2
1.655207646970000e-2 1.676027596150000e-2 1.697109428050000e-2 1.718456436750000e-2
1.740071957760000e-2 1.761959368560000e-2 1.784122089090000e-2 1.806563582330000e-2
1.829287354810000e-2 1.852296957160000e-2 1.875595984670000e-2 1.899188077870000e-2
1.923076923080000e-2 1.947266252960000e-2 1.971759847160000e-2 1.996561532850000e-2
2.021675185340000e-2 2.047104728690000e-2 2.072854136320000e-2 2.098927431620000e-2
2.125328688610000e-2 2.152062032520000e-2 2.179131640510000e-2 2.206541742250000e-2
2.234296620630000e-2 2.262400612400000e-2 2.290858108870000e-2 2.319673556580000e-2
2.348851458000000e-2 2.378396372240000e-2 2.408312915750000e-2 2.438605763060000e-2
2.469279647480000e-2 2.500339361860000e-2 2.531789759360001e-2 2.563635754160000e-2
2.595882322260000e-2 2.628534502260000e-2 2.661597396120000e-2 2.695076169980000e-2
2.728976054990000e-2 2.763302348050000e-2 2.798060412730000e-2 2.833255680040000e-2
2.868893649310000e-2 2.904979889050000e-2 2.941520037810000e-2 2.978519805070000e-2
3.015984972100000e-2 3.053921392920000e-2 3.092334995160000e-2 3.131231781050000e-2
3.170617828270000e-2 3.210499290980000e-2 3.250882400730000e-2 3.291773467470000e-2
3.333178880510000e-2 3.375105109540000e-2 3.417558705599999e-2 3.460546302170000e-2
3.504074616140000e-2 3.548150448890000e-2 3.592780687370000e-2 3.637972305140000e-2
3.683732363490000e-2 3.730068012510000e-2 3.776986492250000e-2 3.824495133810000e-2
3.872601360520000e-2 3.921312689070000e-2 3.970636730700000e-2 4.020581192410000e-2
4.071153878100001e-2 4.122362689870000e-2 4.174215629200001e-2 4.226720798210000e-2
4.279886400950000e-2 4.333720744640001e-2 4.388232241020001e-2 4.443429407610000e-2
4.499320869090000e-2 4.555915358610000e-2 4.613221719169999e-2 4.671248905010001e-2
4.730005982990000e-2 4.789502134040000e-2 4.849746654530001e-2 4.910748957810000e-2
4.972518575610000e-2 5.035065159549999e-2 5.098398482660000e-2 5.162528440909999e-2
5.227465054730001e-2 5.293218470600001e-2 5.359798962630000e-2 5.427216934150000e-2
5.495482919350000e-2 5.564607584950000e-2 5.634601731800000e-2 5.705476296630000e-2
5.777242353740000e-2 5.849911116730000e-2 5.923493940230000e-2 5.998002321710000e-2
6.073447903250000e-2 6.149842473390001e-2 6.227197968920000e-2 6.305526476810000e-2
6.384840236030000e-2 6.465151639540000e-2 6.546473236140001e-2 6.628817732500001e-2
6.712197995120000e-2 6.796627052330000e-2 6.882118096349999e-2 6.968684485319999e-2
7.056339745419999e-2 7.145097572960001e-2 7.234971836540000e-2 7.325976579180001e-2
7.418126020570000e-2 7.511434559240000e-2 7.605916774849999e-2 7.701587430419999e-2
7.798461474700000e-2 7.896554044449999e-2 7.995880466839999e-2 8.096456261820000e-2
8.198297144560001e-2 8.301419027900002e-2 8.405838024860001e-2 8.511570451119999e-2
8.618632827570000e-2 8.727041882940000e-2 8.836814556360000e-2 8.947968000030000e-2
9.060519581909999e-2 9.174486888400001e-2 9.289887727140000e-2 9.406740129730000e-2
9.525062354610000e-2 9.644872889849999e-2 9.766190456120000e-2 9.889034009500000e-2
1.001342274460000e-1 1.013937609730000e-1 1.026691374820000e-1 1.039605562530000e-1
1.052682190720000e-1 1.065923302640000e-1 1.079330967250000e-1 1.092907279520000e-1
1.106654360770000e-1 1.120574359020000e-1 1.134669449290000e-1 1.148941833970000e-1
1.163393743160000e-1 1.178027434980000e-1 1.192845195980000e-1 1.207849341470000e-1
1.223042215880000e-1 1.238426193130000e-1 1.254003676990000e-1 1.269777101470000e-1
1.285748931210000e-1 1.301921661830000e-1 1.318297820370000e-1 1.334879965610000e-1
1.351670688570000e-1 1.368672612830000e-1 1.385888394970000e-1 1.403320724980000e-1
1.420972326720000e-1 1.438845958270000e-1 1.456944412430000e-1 1.475270517120000e-1
1.493827135830000e-1 1.512617168070000e-1 1.531643549810000e-1 1.550909253980000e-1
1.570417290880000e-1 1.590170708670000e-1 1.610172593870000e-1 1.630426071810000e-1
1.650934307150000e-1 1.671700504330000e-1 1.692727908110000e-1 1.714019804080000e-1
1.735579519120000e-1 1.757410422000000e-1 1.779515923830000e-1 1.801899478640000e-1
1.824564583920000e-1 1.847514781120000e-1 1.870753656260000e-1 1.894284840470000e-1
1.918112010540000e-1 1.942238889520000e-1 1.966669247270000e-1 1.991406901090000e-1
2.016455716290000e-1 2.041819606810000e-1 2.067502535780000e-1 2.093508516240000e-1
2.119841611660000e-1 2.146505936650000e-1 2.173505657550000e-1 2.200844993140000e-1
2.228528215240000e-1 2.256559649400000e-1 2.284943675600000e-1 2.313684728890000e-1
2.342787300140000e-1 2.372255936660000e-1 2.402095243000000e-1 2.432309881610000e-1
2.462904573590000e-1 2.493884099420000e-1 2.525253299710000e-1 2.557017075970000e-1
2.589180391350000e-1 2.621748271430000e-1 2.654725805010000e-1 2.688118144900000e-1
2.721930508730000e-1 2.756168179730000e-1 2.790836507610000e-1 2.825940909380000e-1
2.861486870170000e-1 2.897479944100000e-1 2.933925755170000e-1 2.970829998100000e-1
3.008198439270000e-1 3.046036917560000e-1 3.084351345320000e-1 3.123147709250000e-1
3.162432071360000e-1 3.202210569930000e-1 3.242489420400000e-1 3.283274916450000e-1
3.324573430880000e-1 3.366391416670000e-1 3.408735407970000e-1 3.451612021120000e-1
3.495027955660000e-1 3.538989995440000e-1 3.583505009600000e-1 3.628579953700000e-1
3.674221870810000e-1 3.720437892570000e-1 3.767235240310000e-1 3.814621226220000e-1
3.862603254460000e-1 3.911188822320000e-1 3.960385521380000e-1 4.010201038750000e-1
4.060643158180000e-1 4.111719761370000e-1 4.163438829140000e-1 4.215808442690000e-1
4.268836784890000e-1 4.322532141530000e-1 4.376902902600000e-1 4.431957563660000e-1
4.487704727100000e-1 4.544153103540000e-1 4.601311513150000e-1 4.659188887040000e-1
4.717794268670000e-1 4.777136815260000e-1 4.837225799200001e-1 4.898070609500000e-1
4.959680753310000e-1 5.022065857320000e-1 5.085235669340000e-1 5.149200059780000e-1
5.213969023200001e-1 5.279552679900000e-1 5.345961277440000e-1 5.413205192300000e-1
5.481294931490000e-1 5.550241134169999e-1 5.620054573310000e-1 5.690746157420000e-1
5.762326932190000e-1 5.834808082269999e-1 5.908200932980000e-1 5.982516952110000e-1
6.057767751680000e-1 6.133965089790000e-1 6.211120872430000e-1 6.289247155330000e-1
6.368356145900000e-1 6.448460205080000e-1 6.529571849280000e-1 6.611703752370000e-1
6.694868747619999e-1 6.779079829730001e-1 6.864350156860000e-1 6.950693052660000e-1
7.038122008399999e-1 7.126650685020000e-1 7.216292915310000e-1 7.307062706050001e-1
7.398974240200000e-1 7.492041879130000e-1 7.586280164850000e-1 7.681703822269999e-1
7.778327761550000e-1 7.876167080370000e-1 7.975237066310000e-1 8.075553199280000e-1
8.177131153860000e-1 8.279986801820000e-1 8.384136214560000e-1 8.489595665650000e-1
8.596381633330001e-1 8.704510803130001e-1 8.814000070450000e-1 8.924866543210001e-1
9.037127544530000e-1 9.150800615420000e-1 9.265903517520000e-1 9.382454235890000e-1
9.500470981830000e-1 9.619972195690000e-1 9.740976549780001e-1 9.863502951270000e-1
9.987570545160001e-1 1.011319871730000e0 1.024040709730000e0 1.036921556170000e0
1.049964423710000e0 1.063171350340000e0 1.076544399650000e0 1.090085661210000e0
1.103797250870000e0 1.117681311100000e0 1.131740011310000e0 1.145975548200000e0
1.160390146100000e0 1.174986057320000e0 1.189765562510000e0 1.204730970980000e0
1.219884621120000e0 1.235228880710000e0 1.250766147330000e0 1.266498848700000e0
1.282429443090000e0 1.298560419700000e0 1.314894299010000e0 1.331433633230000e0
1.348181006670000e0 1.365139036130000e0 1.382310371340000e0 1.399697695360000e0
1.417303724990000e0 1.435131211220000e0 1.453182939610000e0 1.471461730800000e0
1.489970440870000e0 1.508711961860000e0 1.527689222160000e0 1.546905187010000e0
1.566362858940000e0 1.586065278260000e0 1.606015523500000e0 1.626216711940000e0
1.646672000040000e0 1.667384584000000e0 1.688357700190000e0 1.709594625700000e0
1.731098678860000e0 1.752873219700000e0 1.774921650550000e0 1.797247416520000e0
1.819854006060000e0 1.842744951480000e0 1.865923829560000e0 1.889394262030000e0
1.913159916190000e0 1.937224505490000e0 1.961591790050000e0 1.986265577330000e0
2.011249722640000e0 2.036548129810000e0 2.062164751770000e0 2.088103591170000e0
2.114368701000000e0 2.140964185250000e0 2.167894199500000e0 2.195162951630000e0
2.222774702450000e0 2.250733766330000e0 2.279044511940000e0 2.307711362890000e0
2.336738798440000e0 2.366131354180000e0 2.395893622750000e0 2.426030254580000e0
2.456545958580000e0 2.487445502870000e0 2.518733715590000e0 2.550415485580000e0
2.582495763170000e0 2.614979560980000e0 2.647871954670000e0 2.681178083740000e0
2.714903152340000e0 2.749052430080000e0 2.783631252850000e0 2.818645023670000e0
2.854099213510000e0 2.889999362160000e0 2.926351079090000e0 2.963160044330000e0
3.000432009350000e0 3.038172797980000e0 3.076388307300000e0 3.115084508540000e0
3.154267448080000e0 3.193943248320000e0 3.234118108690000e0 3.274798306600000e0
3.315990198400000e0 3.357700220420000e0 3.399934889930000e0 3.442700806190000e0
3.486004651450000e0 3.529853192020000e0 3.574253279350000e0 3.619211851010000e0
3.664735931900000e0 3.710832635230000e0 3.757509163700000e0 3.804772810630000e0
3.852630961050000e0 3.901091092900000e0 3.950160778170000e0 3.999847684090000e0
4.050159574360000e0 4.101104310300000e0 4.152689852130000e0 4.204924260200000e0
4.257815696230000e0 4.311372424640000e0 4.365602813760000e0 4.420515337190000e0
4.476118575150000e0 4.532421215730000e0 4.589432056360000e0 4.647160005080000e0
4.705614082000000e0 4.764803420700000e0 4.824737269630000e0 4.885424993570000e0
4.946876075110000e0 5.009100116100000e0 5.072106839170000e0 5.135906089260000e0
5.200507835120000e0 5.265922170910000e0 5.332159317750000e0 5.399229625340000e0
5.467143573540000e0 5.535911774040000e0 5.605544972030000e0 5.676054047810000e0
5.747450018600000e0 5.819744040140000e0 5.892947408530000e0 5.967071561940000e0
6.042128082420000e0 6.118128697700000e0 6.195085283050000e0 6.273009863070000e0
6.351914613650000e0 6.431811863810000e0 6.512714097650000e0 6.594633956330000e0
6.677584239980000e0 6.761577909750000e0 6.846628089820000e0 6.932748069470000e0
7.019951305100000e0 7.108251422410000e0 7.197662218470000e0 7.288197663890000e0
7.379871905020000e0 7.472699266150000e0 7.566694251750000e0 7.661871548720000e0
7.758246028710000e0 7.855832750420000e0 7.954646961980000e0 8.054704103320001e0
8.156019808550001e0 8.258609908480000e0 8.362490433010001e0 8.467677613679999e0
8.574187886200001e0 8.682037893030000e0 8.791244485940000e0 8.901824728690000e0
9.013795899660000e0 9.127175494579999e0 9.241981229240000e0 9.358231042280000e0
9.475943097949999e0 9.595135789010000e0 9.715827739550001e0 9.838037807950000e0
9.961785089779999e0 1.008708892080000e1 1.021396888000000e1 1.034244479260000e1
1.047253673320000e1 1.060426502900000e1 1.073765026280000e1 1.087271327630000e1
1.100947517330000e1 1.114795732330000e1 1.128818136430000e1 1.143016920650000e1
1.157394303600000e1 1.171952531760000e1 1.186693879890000e1 1.201620651350000e1
1.216735178490000e1 1.232039822970000e1 1.247536976170000e1 1.263229059570000e1
1.279118525090000e1 1.295207855470000e1 1.311499564710000e1 1.327996198430000e1
1.344700334260000e1 1.361614582250000e1 1.378741585290000e1 1.396084019510000e1
1.413644594700000e1 1.431426054730000e1 1.449431177990000e1 1.467662777820000e1
1.486123702950000e1 1.504816837930000e1 1.523745103610000e1 1.542911457550000e1
1.562318894550000e1 1.581970447060000e1 1.601869185670000e1 1.622018219590000e1
1.642420697170000e1 1.663079806310000e1 1.683998775070000e1 1.705180872050000e1
1.726629407020000e1 1.748347731340000e1 1.770339238560000e1 1.792607364880000e1
1.815155589750000e1 1.837987436380000e1 1.861106472280000e1 1.884516309850000e1
1.908220606930000e1 1.932223067370000e1 1.956527441580000e1 1.981137527200000e1
2.006057169580000e1 2.031290262470000e1 2.056840748600000e1 2.082712620290000e1
2.108909920050000e1 2.135436741290000e1 2.162297228860000e1 2.189495579770000e1
2.217036043810000e1 2.244922924260000e1 2.273160578470000e1 2.301753418650000e1
2.330705912490000e1 2.360022583860000e1 2.389708013570000e1 2.419766840010000e1
2.450203759950000e1 2.481023529210000e1 2.512230963440000e1 2.543830938870000e1
2.575828393070000e1 2.608228325690000e1 2.641035799290000e1 2.674255940110000e1
2.707893938860000e1 2.741955051540000e1 2.776444600280000e1 2.811367974140000e1
2.846730629970000e1 2.882538093250000e1 2.918795958970000e1 2.955509892500000e1
2.992685630460000e1 3.030328981640000e1 3.068445827880000e1 3.107042125030000e1
3.146123903840000e1 3.185697270900000e1 3.225768409650000e1 3.266343581270000e1
3.307429125720001e1 3.349031462700000e1 3.391157092670000e1 3.433812597820000e1
3.477004643180000e1 3.520739977600000e1 3.565025434790000e1 3.609867934460000e1
3.655274483350000e1 3.701252176300001e1 3.747808197440000e1 3.794949821240000e1
3.842684413660001e1 3.891019433340000e1 3.939962432730001e1 3.989521059260000e1
4.039703056580001e1 4.090516265710000e1 4.141968626340001e1 4.194068177990000e1
4.246823061320000e1 4.300241519400000e1 4.354331898960001e1 4.409102651750000e1
4.464562335790000e1 4.520719616780000e1 4.577583269410001e1 4.635162178740000e1
4.693465341590001e1 4.752501867940000e1 4.812280982390000e1 4.872812025520000e1
4.934104455450001e1 4.996167849240000e1 5.059011904420000e1
</PP_R>
<PP_RAB>
2.192023955660000e-7 2.219596222760000e-7 2.247515306290000e-7 2.275785568660000e-7
2.304411427149999e-7 2.333397354620001e-7 2.362747880170000e-7 2.392467589880000e-7
2.422561127520000e-7 2.453033195270000e-7 2.483888554440000e-7 2.515132026260000e-7
2.546768492570000e-7 2.578802896640000e-7 2.611240243900000e-7 2.644085602770000e-7
2.677344105400000e-7 2.711020948480000e-7 2.745121394109999e-7 2.779650770540001e-7
2.814614473060000e-7 2.850017964810000e-7 2.885866777670000e-7 2.922166513090000e-7
2.958922842969999e-7 2.996141510560000e-7 3.033828331360000e-7 3.071989194010000e-7
3.110630061219999e-7 3.149756970700000e-7 3.189376036120001e-7 3.229493448040000e-7
3.270115474870001e-7 3.311248463910000e-7 3.352898842249999e-7 3.395073117859999e-7
3.437777880550001e-7 3.481019803030000e-7 3.524805641930000e-7 3.569142238890000e-7
3.614036521580000e-7 3.659495504830001e-7 3.705526291700000e-7 3.752136074599999e-7
3.799332136390000e-7 3.847121851550000e-7 3.895512687330000e-7 3.944512204890000e-7
3.994128060510000e-7 4.044368006770000e-7 4.095239893760001e-7 4.146751670310000e-7
4.198911385240000e-7 4.251727188630000e-7 4.305207333030000e-7 4.359360174840000e-7
4.414194175550000e-7 4.469717903080000e-7 4.525940033120000e-7 4.582869350499999e-7
4.640514750550001e-7 4.698885240459999e-7 4.757989940749999e-7 4.817838086650000e-7
4.878439029559999e-7 4.939802238480000e-7 5.001937301560001e-7 5.064853927519999e-7
5.128561947210000e-7 5.193071315129999e-7 5.258392111019999e-7 5.324534541369999e-7
5.391508941069999e-7 5.459325775020000e-7 5.527995639720000e-7 5.597529264989999e-7
5.667937515599998e-7 5.739231392980000e-7 5.811422036930001e-7 5.884520727410001e-7
5.958538886220000e-7 6.033488078849999e-7 6.109380016270000e-7 6.186226556750000e-7
6.264039707710002e-7 6.342831627619999e-7 6.422614627879998e-7 6.503401174740000e-7
6.585203891270000e-7 6.668035559300001e-7 6.751909121460001e-7 6.836837683150000e-7
6.922834514640000e-7 7.009913053100001e-7 7.098086904740000e-7 7.187369846910001e-7
7.277775830229999e-7 7.369318980829998e-7 7.462013602520001e-7 7.555874179019999e-7
7.650915376229999e-7 7.747152044529999e-7 7.844599221100000e-7 7.943272132250002e-7
8.043186195840002e-7 8.144357023640001e-7 8.246800423790001e-7 8.350532403290000e-7
8.455569170460000e-7 8.561927137520000e-7 8.669622923109999e-7 8.778673354930003e-7
8.889095472309998e-7 9.000906528949999e-7 9.114123995549999e-7 9.228765562560000e-7
9.344849142970000e-7 9.462392875070000e-7 9.581415125310000e-7 9.701934491149999e-7
9.823969804000001e-7 9.947540132119999e-7 1.007266478360000e-6 1.019936330950000e-6
1.032765550660000e-6 1.045756142090000e-6 1.058910135050000e-6 1.072229584870000e-6
1.085716572740000e-6 1.099373206040000e-6 1.113201618640000e-6 1.127203971250000e-6
1.141382451780000e-6 1.155739275640000e-6 1.170276686110000e-6 1.184996954700000e-6
1.199902381470000e-6 1.214995295430000e-6 1.230278054870000e-6 1.245753047770000e-6
1.261422692110000e-6 1.277289436320000e-6 1.293355759590000e-6 1.309624172340000e-6
1.326097216530000e-6 1.342777466110000e-6 1.359667527390000e-6 1.376770039500000e-6
1.394087674720000e-6 1.411623138980000e-6 1.429379172230000e-6 1.447358548880000e-6
1.465564078250000e-6 1.483998604990000e-6 1.502665009530000e-6 1.521566208530000e-6
1.540705155350000e-6 1.560084840490000e-6 1.579708292050000e-6 1.599578576250000e-6
1.619698797860000e-6 1.640072100700000e-6 1.660701668140000e-6 1.681590723590000e-6
1.702742531020000e-6 1.724160395430000e-6 1.745847663420000e-6 1.767807723650000e-6
1.790044007430000e-6 1.812559989240000e-6 1.835359187230000e-6 1.858445163820000e-6
1.881821526260000e-6 1.905491927130000e-6 1.929460065000000e-6 1.953729684930000e-6
1.978304579090000e-6 2.003188587370000e-6 2.028385597950000e-6 2.053899547890000e-6
2.079734423830000e-6 2.105894262490000e-6 2.132383151430000e-6 2.159205229560000e-6