
     Program BANDS v.7.4.1 starts on  6Aug2025 at 13: 2: 0 

     This program is part of the open-source Quantum ESPRESSO suite
     for quantum simulation of materials; please cite
         "P. Giannozzi et al., J. Phys.:Condens. Matter 21 395502 (2009);
         "P. Giannozzi et al., J. Phys.:Condens. Matter 29 465901 (2017);
         "P. Giannozzi et al., J. Chem. Phys. 152 154105 (2020);
          URL http://www.quantum-espresso.org", 
     in publications or presentations arising from this work. More details at
     http://www.quantum-espresso.org/quote

     Parallel version (MPI), running on     2 processors

     MPI processes distributed on     1 nodes
     R & G space division:  proc/nbgrp/npool/nimage =       2
     2386 MiB available memory on the printing compute node when the environment starts


     Reading xml data from directory:

     ./tmp/Zr6CoTe2.save/
     file Co.pbe-nd-rrkjus.upf: wavefunction(s)  4S 3D renormalized

     IMPORTANT: XC functional enforced from input :
     Exchange-correlation= PBE
                           (   1   4   3   4   0   0   0)
     Any further DFT definition will be discarded
     Please, verify this is what you really want


     Parallelization info
     --------------------
     sticks:   dense  smooth     PW     G-vecs:    dense   smooth      PW
     Min        2688    1785    513                74108    40291    6162
     Max        2689    1786    514                74109    40292    6163
     Sum        5377    3571   1027               148217    80583   12325

     Using Slab Decomposition


     Check: negative core charge=   -0.000007

     negative rho (up, down):  3.714E-01 0.000E+00
     Reading collected, re-writing distributed wavefunctions
     high-symmetry point:  0.0000 0.0000 0.0000   x coordinate   0.0000
     high-symmetry point:  0.5000 0.2887 0.0000   x coordinate   0.5774
     high-symmetry point:  0.6667 0.0000 0.0000   x coordinate   0.9107
     high-symmetry point:  0.0000 0.0000 0.0000   x coordinate   1.5774
     high-symmetry point:  0.0000 0.0000 1.0704   x coordinate   2.6477
     high-symmetry point:  0.5000 0.2887 1.0704   x coordinate   3.2251
     high-symmetry point:  0.6667 0.0000 1.0704   x coordinate   3.5584
     high-symmetry point:  0.0000 0.0000 1.0704   x coordinate   4.2251
     high-symmetry point:  0.5000 0.2887 1.0704   x coordinate   4.2251
     high-symmetry point:  0.5000 0.2887 0.0000   x coordinate   5.2954
     high-symmetry point:  0.6667 0.0000 0.0000   x coordinate   5.2954
     high-symmetry point:  0.6667 0.0000 1.0704   x coordinate   6.3658

     Plottable bands (eV) written to file Zr6CoTe2.dat.gnu
     Bands written to file Zr6CoTe2.dat

 **************************************************************************

                    xk=(   0.00000,   0.00000,   0.00000  )

     point group D_3h (-62m)
     there are  6 classes
     the character table:

       E     2C3   3C2   s_h   2S3   3s_v 
A'_1   1.00  1.00  1.00  1.00  1.00  1.00
A'_2   1.00  1.00 -1.00  1.00  1.00 -1.00
E'     2.00 -1.00  0.00  2.00 -1.00  0.00
A''1   1.00  1.00  1.00 -1.00 -1.00 -1.00
A''2   1.00  1.00 -1.00 -1.00 -1.00  1.00
E''    2.00 -1.00  0.00 -2.00  1.00  0.00

     the symmetry operations in each class and the name of the first element:

     E        1
                                                                 
     2C3      3    4
                                                                 
     3C2      2    5    6
                                                                 
     s_h      7
                                                                 
     2S3      9   10
                                                                 
     3s_v     8   12   11
                                                                 

     Band symmetry, D_3h (-62m) point group:

     e(  1 -  1) =    -34.95857  eV     1   --> A'_1           
     e(  2 -  3) =    -34.94977  eV     2   --> E'             
     e(  4 -  4) =    -34.51464  eV     1   --> A'_1           
     e(  5 -  6) =    -34.48357  eV     2   --> E'             
     e(  7 -  7) =    -13.28169  eV     1   --> A'_2           
     e(  8 -  9) =    -13.16414  eV     2   --> E'             
     e( 10 - 10) =    -13.03418  eV     1   --> A'_1           
     e( 11 - 12) =    -12.97907  eV     2   --> E'             
     e( 13 - 13) =    -12.97445  eV     1   --> A''2           
     e( 14 - 15) =    -12.93370  eV     2   --> E''            
     e( 16 - 16) =    -12.68226  eV     1   --> A'_1           
     e( 17 - 18) =    -12.66714  eV     2   --> E'             
     e( 19 - 19) =    -12.48972  eV     1   --> A'_2           
     e( 20 - 21) =    -12.41425  eV     2   --> E'             
     e( 22 - 22) =    -12.38714  eV     1   --> A''2           
     e( 23 - 24) =    -12.38594  eV     2   --> E''            
     e( 25 - 25) =      0.80596  eV     1   --> A'_1           
     e( 26 - 26) =      1.45439  eV     1   --> A'_2           
     e( 27 - 28) =      8.17434  eV     2   --> E'             
     e( 29 - 30) =      9.47344  eV     2   --> E'             
     e( 31 - 31) =      9.55445  eV     1   --> A'_1           
     e( 32 - 32) =     11.03263  eV     1   --> A'_1           
     e( 33 - 33) =     11.07806  eV     1   --> A''1           
     e( 34 - 35) =     11.61408  eV     2   --> E'             
     e( 36 - 37) =     11.91963  eV     2   --> E'             
     e( 38 - 38) =     12.02960  eV     1   --> A'_1           
     e( 39 - 39) =     12.19156  eV     1   --> A''2           
     e( 40 - 41) =     12.19515  eV     2   --> E''            
     e( 42 - 43) =     13.56710  eV     2   --> E'             
     e( 44 - 45) =     14.48535  eV     2   --> E''            
     e( 46 - 46) =     14.55562  eV     1   --> A'_1           
     e( 47 - 48) =     14.63279  eV     2   --> E'             
     e( 49 - 49) =     14.74919  eV     1   --> A''2           
     e( 50 - 51) =     15.09054  eV     2   --> E''            
     e( 52 - 53) =     15.26931  eV     2   --> E'             
     e( 54 - 54) =     15.44302  eV     1   --> A'_2           
     e( 55 - 55) =     15.64911  eV     1   --> A'_1           
     e( 56 - 57) =     15.87668  eV     2   --> E'             
     e( 58 - 58) =     16.41552  eV     1   --> A'_1           
     e( 59 - 60) =     16.75775  eV     2   --> E''            
     e( 61 - 61) =     17.00696  eV     1   --> A'_1           
     e( 62 - 62) =     17.11703  eV     1   --> A''1           
     e( 63 - 63) =     17.13098  eV     1   --> A''2           
     e( 64 - 64) =     17.38019  eV     1   --> A'_2           
     e( 65 - 66) =     17.46774  eV     2   --> E'             
     e( 67 - 68) =     18.29999  eV     2   --> E'             
     e( 69 - 69) =     18.49561  eV     1   --> A'_2           
     e( 70 - 71) =     18.50718  eV     2   --> E''            
     e( 72 - 72) =     19.39653  eV     1   --> A''1           
     e( 73 - 73) =     21.46088  eV     1   --> A'_1           
     e( 74 - 75) =     21.48682  eV     2   --> E'             
     e( 76 - 76) =     22.76938  eV     1   --> A''2           
     e( 77 - 77) =     22.85834  eV     1   --> A'_2           
     e( 78 - 79) =     22.98021  eV     2   --> E'             
     e( 80 - 81) =     23.90792  eV     2   --> E'             
     e( 82 - 83) =     24.07549  eV     2   --> E''            
     e( 84 - 84) =     24.62395  eV     1   --> A'_1           
     e( 85 - 86) =     24.75289  eV     2   --> E'             
     e( 87 - 87) =     26.17106  eV     1   --> A'_1           
     e( 88 - 89) =     26.78228  eV     2   --> E''            
     e( 90 - 91) =     26.95008  eV     2   --> E''            
     e( 92 - 93) =     27.01745  eV     2   --> E'             
     e( 94 - 95) =     27.18677  eV     2   --> E'             

 **************************************************************************

 **************************************************************************

                    xk=(   0.02500,   0.01443,   0.00000  )

     point group C_s (m)    
     there are  2 classes
     the character table:

       E     s    
A'     1.00  1.00
A''    1.00 -1.00

     the symmetry operations in each class and the name of the first element:

     E        1
                                                                 
     s        2
                                                                 

     Band symmetry, C_s (m)     point group:

     e(  1 -  1) =    -34.95856  eV     1   --> A'             
     e(  2 -  3) =    -34.94978  eV     2   -->   2 A'             
     e(  4 -  4) =    -34.51466  eV     1   --> A'             
     e(  5 -  6) =    -34.48357  eV     2   -->   2 A'             
     e(  7 -  7) =    -13.28151  eV     1   --> A'             
     e(  8 -  9) =    -13.16436  eV     2   -->   2 A'             
     e( 10 - 10) =    -13.03458  eV     1   --> A'             
     e( 11 - 11) =    -12.97910  eV     1   --> A'             
     e( 12 - 12) =    -12.97822  eV     1   --> A'             
     e( 13 - 13) =    -12.97437  eV     1   --> A''            
     e( 14 - 15) =    -12.93374  eV     2   -->   2 A''            
     e( 16 - 16) =    -12.68839  eV     1   --> A'             
     e( 17 - 17) =    -12.66691  eV     1   --> A'             
     e( 18 - 18) =    -12.66099  eV     1   --> A'             
     e( 19 - 19) =    -12.48979  eV     1   --> A'             
     e( 20 - 20) =    -12.41463  eV     1   --> A'             
     e( 21 - 21) =    -12.41431  eV     1   --> A'             
     e( 22 - 22) =    -12.38810  eV     1   --> A''            
     e( 23 - 23) =    -12.38591  eV     1   --> A''            
     e( 24 - 24) =    -12.38501  eV     1   --> A''            
     e( 25 - 25) =      0.80689  eV     1   --> A'             
     e( 26 - 26) =      1.45347  eV     1   --> A'             
     e( 27 - 27) =      8.17255  eV     1   --> A'             
     e( 28 - 28) =      8.17529  eV     1   --> A'             
     e( 29 - 29) =      9.42796  eV     1   --> A'             
     e( 30 - 30) =      9.47361  eV     1   --> A'             
     e( 31 - 31) =      9.60058  eV     1   --> A'             
     e( 32 - 32) =     11.03339  eV     1   --> A'             
     e( 33 - 33) =     11.07930  eV     1   --> A''            
     e( 34 - 34) =     11.61380  eV     1   --> A'             
     e( 35 - 35) =     11.61646  eV     1   --> A'             
     e( 36 - 36) =     11.92129  eV     1   --> A'             
     e( 37 - 37) =     11.92155  eV     1   --> A'             
     e( 38 - 38) =     12.03152  eV     1   --> A'             
     e( 39 - 39) =     12.17041  eV     1   --> A''            
     e( 40 - 40) =     12.19513  eV     1   --> A''            
     e( 41 - 41) =     12.21466  eV     1   --> A''            
     e( 42 - 42) =     13.55926  eV     1   --> A'             
     e( 43 - 43) =     13.56135  eV     1   --> A'             
     e( 44 - 44) =     14.47846  eV     1   --> A''            
     e( 45 - 45) =     14.48489  eV     1   --> A''            
     e( 46 - 46) =     14.55772  eV     1   --> A'             
     e( 47 - 47) =     14.63715  eV     1   --> A'             
     e( 48 - 48) =     14.63727  eV     1   --> A'             
     e( 49 - 49) =     14.75219  eV     1   --> A''            
     e( 50 - 50) =     15.09025  eV     1   --> A''            
     e( 51 - 51) =     15.09947  eV     1   --> A''            
     e( 52 - 52) =     15.26865  eV     1   --> A'             
     e( 53 - 53) =     15.26933  eV     1   --> A'             
     e( 54 - 54) =     15.44372  eV     1   --> A'             
     e( 55 - 55) =     15.64681  eV     1   --> A'             
     e( 56 - 56) =     15.87207  eV     1   --> A'             
     e( 57 - 57) =     15.87583  eV     1   --> A'             
     e( 58 - 58) =     16.41671  eV     1   --> A'             
     e( 59 - 59) =     16.73144  eV     1   --> A''            
     e( 60 - 60) =     16.75686  eV     1   --> A''            
     e( 61 - 61) =     17.00104  eV     1   --> A'             
     e( 62 - 62) =     17.11819  eV     1   --> A''            
     e( 63 - 63) =     17.15834  eV     1   --> A''            
     e( 64 - 64) =     17.37639  eV     1   --> A'             
     e( 65 - 65) =     17.45718  eV     1   --> A'             
     e( 66 - 66) =     17.46668  eV     1   --> A'             
     e( 67 - 67) =     18.31275  eV     1   --> A'             
     e( 68 - 68) =     18.31364  eV     1   --> A'             
     e( 69 - 69) =     18.50059  eV     1   --> A'             
     e( 70 - 70) =     18.50493  eV     1   --> A''            
     e( 71 - 71) =     18.50853  eV     1   --> A''            
     e( 72 - 72) =     19.39142  eV     1   --> A''            
     e( 73 - 73) =     21.45068  eV     1   --> A'             
     e( 74 - 74) =     21.48432  eV     1   --> A'             
     e( 75 - 75) =     21.48884  eV     1   --> A'             
     e( 76 - 76) =     22.76634  eV     1   --> A''            
     e( 77 - 77) =     22.82451  eV     1   --> A'             
     e( 78 - 78) =     22.98241  eV     1   --> A'             
     e( 79 - 79) =     23.00904  eV     1   --> A'             
     e( 80 - 80) =     23.90358  eV     1   --> A'             
     e( 81 - 81) =     23.90874  eV     1   --> A'             
     e( 82 - 82) =     24.07720  eV     1   --> A''            
     e( 83 - 83) =     24.07783  eV     1   --> A''            
     e( 84 - 84) =     24.62059  eV     1   --> A'             
     e( 85 - 85) =     24.75455  eV     1   --> A'             
     e( 86 - 86) =     24.76340  eV     1   --> A'             
     e( 87 - 87) =     26.17546  eV     1   --> A'             
     e( 88 - 88) =     26.72754  eV     1   --> A''            
     e( 89 - 89) =     26.73240  eV     1   --> A''            
     e( 90 - 90) =     26.96804  eV     1   --> A'             
     e( 91 - 91) =     26.97091  eV     1   --> A'             
     e( 92 - 92) =     27.00846  eV     1   --> A''            
     e( 93 - 93) =     27.01301  eV     1   --> A''            
     e( 94 - 94) =     27.12814  eV     1   --> A'             
     e( 95 - 95) =     27.13184  eV     1   --> A'             

 **************************************************************************

 **************************************************************************

                    xk=(   0.05000,   0.02887,   0.00000  )

     Band symmetry, C_s (m)     point group:

     e(  1 -  1) =    -34.95851  eV     1   --> A'             
     e(  2 -  3) =    -34.94981  eV     2   -->   2 A'             
     e(  4 -  4) =    -34.51473  eV     1   --> A'             
     e(  5 -  6) =    -34.48355  eV     2   -->   2 A'             
     e(  7 -  7) =    -13.28096  eV     1   --> A'             
     e(  8 -  8) =    -13.16501  eV     1   --> A'             
     e(  9 -  9) =    -13.16467  eV     1   --> A'             
     e( 10 - 10) =    -13.03567  eV     1   --> A'             
     e( 11 - 11) =    -12.97921  eV     1   --> A'             
     e( 12 - 12) =    -12.97578  eV     1   --> A'             
     e( 13 - 13) =    -12.97416  eV     1   --> A''            
     e( 14 - 15) =    -12.93386  eV     2   -->   2 A''            
     e( 16 - 16) =    -12.69866  eV     1   --> A'             
     e( 17 - 17) =    -12.66623  eV     1   --> A'             
     e( 18 - 18) =    -12.65067  eV     1   --> A'             
     e( 19 - 19) =    -12.49000  eV     1   --> A'             
     e( 20 - 20) =    -12.41576  eV     1   --> A'             
     e( 21 - 21) =    -12.41447  eV     1   --> A'             
     e( 22 - 22) =    -12.38950  eV     1   --> A''            
     e( 23 - 23) =    -12.38582  eV     1   --> A''            
     e( 24 - 24) =    -12.38369  eV     1   --> A''            
     e( 25 - 25) =      0.80968  eV     1   --> A'             
     e( 26 - 26) =      1.45071  eV     1   --> A'             
     e( 27 - 27) =      8.16724  eV     1   --> A'             
     e( 28 - 28) =      8.17804  eV     1   --> A'             
     e( 29 - 29) =      9.35856  eV     1   --> A'             
     e( 30 - 30) =      9.47410  eV     1   --> A'             
     e( 31 - 31) =      9.67199  eV     1   --> A'             
     e( 32 - 32) =     11.03563  eV     1   --> A'             
     e( 33 - 33) =     11.08300  eV     1   --> A''            
     e( 34 - 34) =     11.61293  eV     1   --> A'             
     e( 35 - 35) =     11.62343  eV     1   --> A'             
     e( 36 - 36) =     11.92600  eV     1   --> A'             
     e( 37 - 37) =     11.92749  eV     1   --> A'             
     e( 38 - 38) =     12.03734  eV     1   --> A'             
     e( 39 - 39) =     12.14616  eV     1   --> A''            
     e( 40 - 40) =     12.19510  eV     1   --> A''            
     e( 41 - 41) =     12.23398  eV     1   --> A''            
     e( 42 - 42) =     13.53659  eV     1   --> A'             
     e( 43 - 43) =     13.54450  eV     1   --> A'             
     e( 44 - 44) =     14.45916  eV     1   --> A''            
     e( 45 - 45) =     14.48367  eV     1   --> A''            
     e( 46 - 46) =     14.56330  eV     1   --> A'             
     e( 47 - 47) =     14.64970  eV     1   --> A'             
     e( 48 - 48) =     14.65042  eV     1   --> A'             
     e( 49 - 49) =     14.76109  eV     1   --> A''            
     e( 50 - 50) =     15.08940  eV     1   --> A''            
     e( 51 - 51) =     15.12468  eV     1   --> A''            
     e( 52 - 52) =     15.26618  eV     1   --> A'             
     e( 53 - 53) =     15.26979  eV     1   --> A'             
     e( 54 - 54) =     15.44598  eV     1   --> A'             
     e( 55 - 55) =     15.64012  eV     1   --> A'             
     e( 56 - 56) =     15.85854  eV     1   --> A'             
     e( 57 - 57) =     15.87313  eV     1   --> A'             
     e( 58 - 58) =     16.42032  eV     1   --> A'             
     e( 59 - 59) =     16.66795  eV     1   --> A''            
     e( 60 - 60) =     16.75447  eV     1   --> A''            
     e( 61 - 61) =     16.98369  eV     1   --> A'             
     e( 62 - 62) =     17.12163  eV     1   --> A''            
     e( 63 - 63) =     17.22497  eV     1   --> A''            
     e( 64 - 64) =     17.36085  eV     1   --> A'             
     e( 65 - 65) =     17.42849  eV     1   --> A'             
     e( 66 - 66) =     17.46901  eV     1   --> A'             
     e( 67 - 67) =     18.34869  eV     1   --> A'             
     e( 68 - 68) =     18.34996  eV     1   --> A'             
     e( 69 - 69) =     18.49817  eV     1   --> A''            
     e( 70 - 70) =     18.51255  eV     1   --> A''            
     e( 71 - 71) =     18.51747  eV     1   --> A'             
     e( 72 - 72) =     19.37619  eV     1   --> A''            
     e( 73 - 73) =     21.42453  eV     1   --> A'             
     e( 74 - 74) =     21.47742  eV     1   --> A'             
     e( 75 - 75) =     21.49033  eV     1   --> A'             
     e( 76 - 76) =     22.75750  eV     1   --> A''            
     e( 77 - 77) =     22.75917  eV     1   --> A'             
     e( 78 - 78) =     22.98622  eV     1   --> A'             
     e( 79 - 79) =     23.06238  eV     1   --> A'             
     e( 80 - 80) =     23.89150  eV     1   --> A'             
     e( 81 - 81) =     23.91000  eV     1   --> A'             
     e( 82 - 82) =     24.08127  eV     1   --> A''            
     e( 83 - 83) =     24.08530  eV     1   --> A''            
     e( 84 - 84) =     24.61166  eV     1   --> A'             
     e( 85 - 85) =     24.75787  eV     1   --> A'             
     e( 86 - 86) =     24.79532  eV     1   --> A'             
     e( 87 - 87) =     26.18708  eV     1   --> A'             
     e( 88 - 88) =     26.63239  eV     1   --> A''            
     e( 89 - 89) =     26.65553  eV     1   --> A''            
     e( 90 - 90) =     26.84458  eV     1   --> A'             
     e( 91 - 91) =     26.85533  eV     1   --> A'             
     e( 92 - 92) =     27.08333  eV     1   --> A'             
     e( 93 - 93) =     27.09320  eV     1   --> A'             
     e( 94 - 94) =     27.11156  eV     1   --> A''            
     e( 95 - 95) =     27.13206  eV     1   --> A''            

 **************************************************************************

 **************************************************************************

                    xk=(   0.07500,   0.04330,   0.00000  )

     Band symmetry, C_s (m)     point group:

     e(  1 -  1) =    -34.95843  eV     1   --> A'             
     e(  2 -  3) =    -34.94985  eV     2   -->   2 A'             
     e(  4 -  4) =    -34.51483  eV     1   --> A'             
     e(  5 -  5) =    -34.48353  eV     1   --> A'             
     e(  6 -  6) =    -34.48343  eV     1   --> A'             
     e(  7 -  7) =    -13.28005  eV     1   --> A'             
     e(  8 -  8) =    -13.16608  eV     1   --> A'             
     e(  9 -  9) =    -13.16534  eV     1   --> A'             
     e( 10 - 10) =    -13.03722  eV     1   --> A'             
     e( 11 - 11) =    -12.97940  eV     1   --> A'             
     e( 12 - 12) =    -12.97380  eV     1   --> A''            
     e( 13 - 13) =    -12.97203  eV     1   --> A'             
     e( 14 - 14) =    -12.93408  eV     1   --> A''            
     e( 15 - 15) =    -12.93398  eV     1   --> A''            
     e( 16 - 16) =    -12.70943  eV     1   --> A'             
     e( 17 - 17) =    -12.66508  eV     1   --> A'             
     e( 18 - 18) =    -12.63982  eV     1   --> A'             
     e( 19 - 19) =    -12.49034  eV     1   --> A'             
     e( 20 - 20) =    -12.41763  eV     1   --> A'             
     e( 21 - 21) =    -12.41475  eV     1   --> A'             
     e( 22 - 22) =    -12.39094  eV     1   --> A''            
     e( 23 - 23) =    -12.38567  eV     1   --> A''            
     e( 24 - 24) =    -12.38239  eV     1   --> A''            
     e( 25 - 25) =      0.81429  eV     1   --> A'             
     e( 26 - 26) =      1.44614  eV     1   --> A'             
     e( 27 - 27) =      8.15860  eV     1   --> A'             
     e( 28 - 28) =      8.18225  eV     1   --> A'             
     e( 29 - 29) =      9.28898  eV     1   --> A'             
     e( 30 - 30) =      9.47487  eV     1   --> A'             
     e( 31 - 31) =      9.74519  eV     1   --> A'             
     e( 32 - 32) =     11.03925  eV     1   --> A'             
     e( 33 - 33) =     11.08914  eV     1   --> A''            
     e( 34 - 34) =     11.61142  eV     1   --> A'             
     e( 35 - 35) =     11.63456  eV     1   --> A'             
     e( 36 - 36) =     11.93324  eV     1   --> A'             
     e( 37 - 37) =     11.93786  eV     1   --> A'             
     e( 38 - 38) =     12.04729  eV     1   --> A'             
     e( 39 - 39) =     12.12069  eV     1   --> A''            
     e( 40 - 40) =     12.19504  eV     1   --> A''            
     e( 41 - 41) =     12.25122  eV     1   --> A''            
     e( 42 - 42) =     13.50147  eV     1   --> A'             
     e( 43 - 43) =     13.51765  eV     1   --> A'             
     e( 44 - 44) =     14.43075  eV     1   --> A''            
     e( 45 - 45) =     14.48204  eV     1   --> A''            
     e( 46 - 46) =     14.57096  eV     1   --> A'             
     e( 47 - 47) =     14.66921  eV     1   --> A'             
     e( 48 - 48) =     14.67079  eV     1   --> A'             
     e( 49 - 49) =     14.77555  eV     1   --> A''            
     e( 50 - 50) =     15.08810  eV     1   --> A''            
     e( 51 - 51) =     15.16230  eV     1   --> A''            
     e( 52 - 52) =     15.26088  eV     1   --> A'             
     e( 53 - 53) =     15.27151  eV     1   --> A'             
     e( 54 - 54) =     15.45014  eV     1   --> A'             
     e( 55 - 55) =     15.62963  eV     1   --> A'             
     e( 56 - 56) =     15.83702  eV     1   --> A'             
     e( 57 - 57) =     15.86832  eV     1   --> A'             
     e( 58 - 58) =     16.42631  eV     1   --> A'             
     e( 59 - 59) =     16.58808  eV     1   --> A''            
     e( 60 - 60) =     16.75131  eV     1   --> A''            
     e( 61 - 61) =     16.95619  eV     1   --> A'             
     e( 62 - 62) =     17.12718  eV     1   --> A''            
     e( 63 - 63) =     17.30989  eV     1   --> A''            
     e( 64 - 64) =     17.32824  eV     1   --> A'             
     e( 65 - 65) =     17.39017  eV     1   --> A'             
     e( 66 - 66) =     17.48137  eV     1   --> A'             
     e( 67 - 67) =     18.39563  eV     1   --> A'             
     e( 68 - 68) =     18.40288  eV     1   --> A'             
     e( 69 - 69) =     18.48684  eV     1   --> A''            
     e( 70 - 70) =     18.51912  eV     1   --> A''            
     e( 71 - 71) =     18.55263  eV     1   --> A'             
     e( 72 - 72) =     19.35110  eV     1   --> A''            
     e( 73 - 73) =     21.38615  eV     1   --> A'             
     e( 74 - 74) =     21.46595  eV     1   --> A'             
     e( 75 - 75) =     21.48885  eV     1   --> A'             
     e( 76 - 76) =     22.68775  eV     1   --> A'             
     e( 77 - 77) =     22.74364  eV     1   --> A''            
     e( 78 - 78) =     22.98529  eV     1   --> A'             
     e( 79 - 79) =     23.12164  eV     1   --> A'             
     e( 80 - 80) =     23.87424  eV     1   --> A'             
     e( 81 - 81) =     23.90893  eV     1   --> A'             
     e( 82 - 82) =     24.08563  eV     1   --> A''            
     e( 83 - 83) =     24.09836  eV     1   --> A''            
     e( 84 - 84) =     24.60015  eV     1   --> A'             
     e( 85 - 85) =     24.75963  eV     1   --> A'             
     e( 86 - 86) =     24.84840  eV     1   --> A'             
     e( 87 - 87) =     26.19989  eV     1   --> A'             
     e( 88 - 88) =     26.53372  eV     1   --> A''            
     e( 89 - 89) =     26.58885  eV     1   --> A''            
     e( 90 - 90) =     26.69798  eV     1   --> A'             
     e( 91 - 91) =     26.72794  eV     1   --> A'             
     e( 92 - 92) =     27.04180  eV     1   --> A'             
     e( 93 - 93) =     27.07266  eV     1   --> A'             
     e( 94 - 94) =     27.22320  eV     1   --> A''            
     e( 95 - 95) =     27.26943  eV     1   --> A''            

 **************************************************************************

 **************************************************************************

                    xk=(   0.10000,   0.05774,   0.00000  )

     Band symmetry, C_s (m)     point group:

     e(  1 -  1) =    -34.95832  eV     1   --> A'             
     e(  2 -  3) =    -34.94992  eV     2   -->   2 A'             
     e(  4 -  4) =    -34.51498  eV     1   --> A'             
     e(  5 -  5) =    -34.48350  eV     1   --> A'             
     e(  6 -  6) =    -34.48332  eV     1   --> A'             
     e(  7 -  7) =    -13.27879  eV     1   --> A'             
     e(  8 -  8) =    -13.16753  eV     1   --> A'             
     e(  9 -  9) =    -13.16626  eV     1   --> A'             
     e( 10 - 10) =    -13.03894  eV     1   --> A'             
     e( 11 - 11) =    -12.97969  eV     1   --> A'             
     e( 12 - 12) =    -12.97330  eV     1   --> A''            
     e( 13 - 13) =    -12.96729  eV     1   --> A'             
     e( 14 - 14) =    -12.93439  eV     1   --> A''            
     e( 15 - 15) =    -12.93419  eV     1   --> A''            
     e( 16 - 16) =    -12.72013  eV     1   --> A'             
     e( 17 - 17) =    -12.66348  eV     1   --> A'             
     e( 18 - 18) =    -12.62897  eV     1   --> A'             
     e( 19 - 19) =    -12.49081  eV     1   --> A'             
     e( 20 - 20) =    -12.42021  eV     1   --> A'             
     e( 21 - 21) =    -12.41515  eV     1   --> A'             
     e( 22 - 22) =    -12.39239  eV     1   --> A''            
     e( 23 - 23) =    -12.38547  eV     1   --> A''            
     e( 24 - 24) =    -12.38113  eV     1   --> A''            
     e( 25 - 25) =      0.82070  eV     1   --> A'             
     e( 26 - 26) =      1.43981  eV     1   --> A'             
     e( 27 - 27) =      8.14689  eV     1   --> A'             
     e( 28 - 28) =      8.18737  eV     1   --> A'             
     e( 29 - 29) =      9.22268  eV     1   --> A'             
     e( 30 - 30) =      9.47584  eV     1   --> A'             
     e( 31 - 31) =      9.81710  eV     1   --> A'             
     e( 32 - 32) =     11.04411  eV     1   --> A'             
     e( 33 - 33) =     11.09767  eV     1   --> A''            
     e( 34 - 34) =     11.60926  eV     1   --> A'             
     e( 35 - 35) =     11.64909  eV     1   --> A'             
     e( 36 - 36) =     11.94234  eV     1   --> A'             
     e( 37 - 37) =     11.95310  eV     1   --> A'             
     e( 38 - 38) =     12.06165  eV     1   --> A'             
     e( 39 - 39) =     12.09423  eV     1   --> A''            
     e( 40 - 40) =     12.19500  eV     1   --> A''            
     e( 41 - 41) =     12.26617  eV     1   --> A''            
     e( 42 - 42) =     13.45697  eV     1   --> A'             
     e( 43 - 43) =     13.48234  eV     1   --> A'             
     e( 44 - 44) =     14.39694  eV     1   --> A''            
     e( 45 - 45) =     14.48045  eV     1   --> A''            
     e( 46 - 46) =     14.57969  eV     1   --> A'             
     e( 47 - 47) =     14.69385  eV     1   --> A'             
     e( 48 - 48) =     14.69562  eV     1   --> A'             
     e( 49 - 49) =     14.79496  eV     1   --> A''            
     e( 50 - 50) =     15.08649  eV     1   --> A''            
     e( 51 - 51) =     15.20785  eV     1   --> A''            
     e( 52 - 52) =     15.25160  eV     1   --> A'             
     e( 53 - 53) =     15.27536  eV     1   --> A'             
     e( 54 - 54) =     15.45653  eV     1   --> A'             
     e( 55 - 55) =     15.61622  eV     1   --> A'             
     e( 56 - 56) =     15.80900  eV     1   --> A'             
     e( 57 - 57) =     15.86112  eV     1   --> A'             
     e( 58 - 58) =     16.43451  eV     1   --> A'             
     e( 59 - 59) =     16.50226  eV     1   --> A''            
     e( 60 - 60) =     16.74856  eV     1   --> A''            
     e( 61 - 61) =     16.92069  eV     1   --> A'             
     e( 62 - 62) =     17.13466  eV     1   --> A''            
     e( 63 - 63) =     17.27856  eV     1   --> A'             
     e( 64 - 64) =     17.35304  eV     1   --> A'             
     e( 65 - 65) =     17.40249  eV     1   --> A''            
     e( 66 - 66) =     17.50276  eV     1   --> A'             
     e( 67 - 67) =     18.43618  eV     1   --> A'             
     e( 68 - 68) =     18.46920  eV     1   --> A'             
     e( 69 - 69) =     18.47088  eV     1   --> A''            
     e( 70 - 70) =     18.52807  eV     1   --> A''            
     e( 71 - 71) =     18.61353  eV     1   --> A'             
     e( 72 - 72) =     19.31661  eV     1   --> A''            
     e( 73 - 73) =     21.33842  eV     1   --> A'             
     e( 74 - 74) =     21.44714  eV     1   --> A'             
     e( 75 - 75) =     21.48563  eV     1   --> A'             
     e( 76 - 76) =     22.61950  eV     1   --> A'             
     e( 77 - 77) =     22.72590  eV     1   --> A''            
     e( 78 - 78) =     22.97378  eV     1   --> A'             
     e( 79 - 79) =     23.18374  eV     1   --> A'             
     e( 80 - 80) =     23.85504  eV     1   --> A'             
     e( 81 - 81) =     23.90307  eV     1   --> A'             
     e( 82 - 82) =     24.08796  eV     1   --> A''            
     e( 83 - 83) =     24.11699  eV     1   --> A''            
     e( 84 - 84) =     24.58931  eV     1   --> A'             
     e( 85 - 85) =     24.75724  eV     1   --> A'             
     e( 86 - 86) =     24.92083  eV     1   --> A'             
     e( 87 - 87) =     26.19864  eV     1   --> A'             
     e( 88 - 88) =     26.43816  eV     1   --> A''            
     e( 89 - 89) =     26.53936  eV     1   --> A''            
     e( 90 - 90) =     26.55064  eV     1   --> A'             
     e( 91 - 91) =     26.62152  eV     1   --> A'             
     e( 92 - 92) =     26.99122  eV     1   --> A'             
     e( 93 - 93) =     27.06616  eV     1   --> A'             
     e( 94 - 94) =     27.33713  eV     1   --> A''            
     e( 95 - 95) =     27.41764  eV     1   --> A''            

 **************************************************************************

 **************************************************************************

                    xk=(   0.12500,   0.07217,   0.00000  )

     Band symmetry, C_s (m)     point group:

     e(  1 -  1) =    -34.95818  eV     1   --> A'             
     e(  2 -  2) =    -34.95001  eV     1   --> A'             
     e(  3 -  3) =    -34.94990  eV     1   --> A'             
     e(  4 -  4) =    -34.51515  eV     1   --> A'             
     e(  5 -  5) =    -34.48346  eV     1   --> A'             
     e(  6 -  6) =    -34.48320  eV     1   --> A'             
     e(  7 -  7) =    -13.27719  eV     1   --> A'             
     e(  8 -  8) =    -13.16934  eV     1   --> A'             
     e(  9 -  9) =    -13.16742  eV     1   --> A'             
     e( 10 - 10) =    -13.04061  eV     1   --> A'             
     e( 11 - 11) =    -12.98009  eV     1   --> A'             
     e( 12 - 12) =    -12.97267  eV     1   --> A''            
     e( 13 - 13) =    -12.96188  eV     1   --> A'             
     e( 14 - 14) =    -12.93479  eV     1   --> A''            
     e( 15 - 15) =    -12.93443  eV     1   --> A''            
     e( 16 - 16) =    -12.73058  eV     1   --> A'             
     e( 17 - 17) =    -12.66141  eV     1   --> A'             
     e( 18 - 18) =    -12.61831  eV     1   --> A'             
     e( 19 - 19) =    -12.49138  eV     1   --> A'             
     e( 20 - 20) =    -12.42346  eV     1   --> A'             
     e( 21 - 21) =    -12.41567  eV     1   --> A'             
     e( 22 - 22) =    -12.39383  eV     1   --> A''            
     e( 23 - 23) =    -12.38521  eV     1   --> A''            
     e( 24 - 24) =    -12.37993  eV     1   --> A''            
     e( 25 - 25) =      0.82882  eV     1   --> A'             
     e( 26 - 26) =      1.43178  eV     1   --> A'             
     e( 27 - 27) =      8.13249  eV     1   --> A'             
     e( 28 - 28) =      8.19263  eV     1   --> A'             
     e( 29 - 29) =      9.16147  eV     1   --> A'             
     e( 30 - 30) =      9.47694  eV     1   --> A'             
     e( 31 - 31) =      9.88640  eV     1   --> A'             
     e( 32 - 32) =     11.05005  eV     1   --> A'             
     e( 33 - 33) =     11.10853  eV     1   --> A''            
     e( 34 - 34) =     11.60643  eV     1   --> A'             
     e( 35 - 35) =     11.66597  eV     1   --> A'             
     e( 36 - 36) =     11.95267  eV     1   --> A'             
     e( 37 - 37) =     11.97368  eV     1   --> A'             
     e( 38 - 38) =     12.06695  eV     1   --> A''            
     e( 39 - 39) =     12.08065  eV     1   --> A'             
     e( 40 - 40) =     12.19498  eV     1   --> A''            
     e( 41 - 41) =     12.27865  eV     1   --> A''            
     e( 42 - 42) =     13.40621  eV     1   --> A'             
     e( 43 - 43) =     13.44029  eV     1   --> A'             
     e( 44 - 44) =     14.36086  eV     1   --> A''            
     e( 45 - 45) =     14.47932  eV     1   --> A''            
     e( 46 - 46) =     14.58892  eV     1   --> A'             
     e( 47 - 47) =     14.71977  eV     1   --> A'             
     e( 48 - 48) =     14.72346  eV     1   --> A'             
     e( 49 - 49) =     14.81859  eV     1   --> A''            
     e( 50 - 50) =     15.08481  eV     1   --> A''            
     e( 51 - 51) =     15.23735  eV     1   --> A'             
     e( 52 - 52) =     15.25719  eV     1   --> A''            
     e( 53 - 53) =     15.28196  eV     1   --> A'             
     e( 54 - 54) =     15.46506  eV     1   --> A'             
     e( 55 - 55) =     15.60103  eV     1   --> A'             
     e( 56 - 56) =     15.77644  eV     1   --> A'             
     e( 57 - 57) =     15.85154  eV     1   --> A'             
     e( 58 - 58) =     16.41500  eV     1   --> A''            
     e( 59 - 59) =     16.44443  eV     1   --> A'             
     e( 60 - 60) =     16.74773  eV     1   --> A''            
     e( 61 - 61) =     16.88011  eV     1   --> A'             
     e( 62 - 62) =     17.14393  eV     1   --> A''            
     e( 63 - 63) =     17.21694  eV     1   --> A'             
     e( 64 - 64) =     17.32216  eV     1   --> A'             
     e( 65 - 65) =     17.49794  eV     1   --> A''            
     e( 66 - 66) =     17.52994  eV     1   --> A'             
     e( 67 - 67) =     18.45026  eV     1   --> A''            
     e( 68 - 68) =     18.46727  eV     1   --> A'             
     e( 69 - 69) =     18.53914  eV     1   --> A''            
     e( 70 - 70) =     18.54323  eV     1   --> A'             
     e( 71 - 71) =     18.69768  eV     1   --> A'             
     e( 72 - 72) =     19.27334  eV     1   --> A''            
     e( 73 - 73) =     21.28455  eV     1   --> A'             
     e( 74 - 74) =     21.41717  eV     1   --> A'             
     e( 75 - 75) =     21.48286  eV     1   --> A'             
     e( 76 - 76) =     22.56052  eV     1   --> A'             
     e( 77 - 77) =     22.70558  eV     1   --> A''            
     e( 78 - 78) =     22.94870  eV     1   --> A'             
     e( 79 - 79) =     23.24488  eV     1   --> A'             
     e( 80 - 80) =     23.83692  eV     1   --> A'             
     e( 81 - 81) =     23.89211  eV     1   --> A'             
     e( 82 - 82) =     24.08610  eV     1   --> A''            
     e( 83 - 83) =     24.14072  eV     1   --> A''            
     e( 84 - 84) =     24.58161  eV     1   --> A'             
     e( 85 - 85) =     24.74958  eV     1   --> A'             
     e( 86 - 86) =     25.00945  eV     1   --> A'             
     e( 87 - 87) =     26.15725  eV     1   --> A'             
     e( 88 - 88) =     26.34821  eV     1   --> A''            
     e( 89 - 89) =     26.41144  eV     1   --> A'             
     e( 90 - 90) =     26.50956  eV     1   --> A''            
     e( 91 - 91) =     26.56559  eV     1   --> A'             
     e( 92 - 92) =     26.93403  eV     1   --> A'             
     e( 93 - 93) =     27.07292  eV     1   --> A'             
     e( 94 - 94) =     27.45115  eV     1   --> A''            
     e( 95 - 95) =     27.57320  eV     1   --> A''            

 **************************************************************************

 **************************************************************************

                    xk=(   0.15000,   0.08660,   0.00000  )

     Band symmetry, C_s (m)     point group:

     e(  1 -  1) =    -34.95801  eV     1   --> A'             
     e(  2 -  2) =    -34.95011  eV     1   --> A'             
     e(  3 -  3) =    -34.94996  eV     1   --> A'             
     e(  4 -  4) =    -34.51536  eV     1   --> A'             
     e(  5 -  5) =    -34.48341  eV     1   --> A'             
     e(  6 -  6) =    -34.48305  eV     1   --> A'             
     e(  7 -  7) =    -13.27526  eV     1   --> A'             
     e(  8 -  8) =    -13.17147  eV     1   --> A'             
     e(  9 -  9) =    -13.16880  eV     1   --> A'             
     e( 10 - 10) =    -13.04204  eV     1   --> A'             
     e( 11 - 11) =    -12.98063  eV     1   --> A'             
     e( 12 - 12) =    -12.97190  eV     1   --> A''            
     e( 13 - 13) =    -12.95605  eV     1   --> A'             
     e( 14 - 14) =    -12.93529  eV     1   --> A''            
     e( 15 - 15) =    -12.93472  eV     1   --> A''            
     e( 16 - 16) =    -12.74065  eV     1   --> A'             
     e( 17 - 17) =    -12.65887  eV     1   --> A'             
     e( 18 - 18) =    -12.60795  eV     1   --> A'             
     e( 19 - 19) =    -12.49206  eV     1   --> A'             
     e( 20 - 20) =    -12.42733  eV     1   --> A'             
     e( 21 - 21) =    -12.41632  eV     1   --> A'             
     e( 22 - 22) =    -12.39524  eV     1   --> A''            
     e( 23 - 23) =    -12.38491  eV     1   --> A''            
     e( 24 - 24) =    -12.37880  eV     1   --> A''            
     e( 25 - 25) =      0.83860  eV     1   --> A'             
     e( 26 - 26) =      1.42212  eV     1   --> A'             
     e( 27 - 27) =      8.11582  eV     1   --> A'             
     e( 28 - 28) =      8.19711  eV     1   --> A'             
     e( 29 - 29) =      9.10688  eV     1   --> A'             
     e( 30 - 30) =      9.47813  eV     1   --> A'             
     e( 31 - 31) =      9.95216  eV     1   --> A'             
     e( 32 - 32) =     11.05690  eV     1   --> A'             
     e( 33 - 33) =     11.12164  eV     1   --> A''            
     e( 34 - 34) =     11.60298  eV     1   --> A'             
     e( 35 - 35) =     11.68396  eV     1   --> A'             
     e( 36 - 36) =     11.96374  eV     1   --> A'             
     e( 37 - 37) =     11.99991  eV     1   --> A'             
     e( 38 - 38) =     12.03904  eV     1   --> A''            
     e( 39 - 39) =     12.10438  eV     1   --> A'             
     e( 40 - 40) =     12.19503  eV     1   --> A''            
     e( 41 - 41) =     12.28852  eV     1   --> A''            
     e( 42 - 42) =     13.35198  eV     1   --> A'             
     e( 43 - 43) =     13.39316  eV     1   --> A'             
     e( 44 - 44) =     14.32484  eV     1   --> A''            
     e( 45 - 45) =     14.47894  eV     1   --> A''            
     e( 46 - 46) =     14.59809  eV     1   --> A'             
     e( 47 - 47) =     14.74261  eV     1   --> A'             
     e( 48 - 48) =     14.75407  eV     1   --> A'             
     e( 49 - 49) =     14.84561  eV     1   --> A''            
     e( 50 - 50) =     15.08342  eV     1   --> A''            
     e( 51 - 51) =     15.21740  eV     1   --> A'             
     e( 52 - 52) =     15.29133  eV     1   --> A'             
     e( 53 - 53) =     15.30676  eV     1   --> A''            
     e( 54 - 54) =     15.47492  eV     1   --> A'             
     e( 55 - 55) =     15.58562  eV     1   --> A'             
     e( 56 - 56) =     15.74154  eV     1   --> A'             
     e( 57 - 57) =     15.84013  eV     1   --> A'             
     e( 58 - 58) =     16.32851  eV     1   --> A''            
     e( 59 - 59) =     16.45507  eV     1   --> A'             
     e( 60 - 60) =     16.75054  eV     1   --> A''            
     e( 61 - 61) =     16.83763  eV     1   --> A'             
     e( 62 - 62) =     17.15048  eV     1   --> A'             
     e( 63 - 63) =     17.15489  eV     1   --> A''            
     e( 64 - 64) =     17.29708  eV     1   --> A'             
     e( 65 - 65) =     17.56052  eV     1   --> A'             
     e( 66 - 66) =     17.59363  eV     1   --> A''            
     e( 67 - 67) =     18.42495  eV     1   --> A''            
     e( 68 - 68) =     18.49307  eV     1   --> A'             
     e( 69 - 69) =     18.55195  eV     1   --> A''            
     e( 70 - 70) =     18.62143  eV     1   --> A'             
     e( 71 - 71) =     18.79555  eV     1   --> A'             
     e( 72 - 72) =     19.22213  eV     1   --> A''            
     e( 73 - 73) =     21.22762  eV     1   --> A'             
     e( 74 - 74) =     21.37385  eV     1   --> A'             
     e( 75 - 75) =     21.48181  eV     1   --> A'             
     e( 76 - 76) =     22.51479  eV     1   --> A'             
     e( 77 - 77) =     22.68391  eV     1   --> A''            
     e( 78 - 78) =     22.90977  eV     1   --> A'             
     e( 79 - 79) =     23.29855  eV     1   --> A'             
     e( 80 - 80) =     23.82182  eV     1   --> A'             
     e( 81 - 81) =     23.87872  eV     1   --> A'             
     e( 82 - 82) =     24.07834  eV     1   --> A''            
     e( 83 - 83) =     24.16875  eV     1   --> A''            
     e( 84 - 84) =     24.57862  eV     1   --> A'             
     e( 85 - 85) =     24.73696  eV     1   --> A'             
     e( 86 - 86) =     25.11006  eV     1   --> A'             
     e( 87 - 87) =     26.06758  eV     1   --> A'             
     e( 88 - 88) =     26.26558  eV     1   --> A''            
     e( 89 - 89) =     26.28478  eV     1   --> A'             
     e( 90 - 90) =     26.50034  eV     1   --> A''            
     e( 91 - 91) =     26.56922  eV     1   --> A'             
     e( 92 - 92) =     26.87433  eV     1   --> A'             
     e( 93 - 93) =     27.09298  eV     1   --> A'             
     e( 94 - 94) =     27.56390  eV     1   --> A''            
     e( 95 - 95) =     27.73303  eV     1   --> A''            

 **************************************************************************

 **************************************************************************

                    xk=(   0.17500,   0.10104,   0.00000  )

     Band symmetry, C_s (m)     point group:

     e(  1 -  1) =    -34.95781  eV     1   --> A'             
     e(  2 -  2) =    -34.95024  eV     1   --> A'             
     e(  3 -  3) =    -34.95001  eV     1   --> A'             
     e(  4 -  4) =    -34.51559  eV     1   --> A'             
     e(  5 -  5) =    -34.48336  eV     1   --> A'             
     e(  6 -  6) =    -34.48288  eV     1   --> A'             
     e(  7 -  7) =    -13.27303  eV     1   --> A'             
     e(  8 -  8) =    -13.17387  eV     1   --> A'             
     e(  9 -  9) =    -13.17036  eV     1   --> A'             
     e( 10 - 10) =    -13.04312  eV     1   --> A'             
     e( 11 - 11) =    -12.98135  eV     1   --> A'             
     e( 12 - 12) =    -12.97102  eV     1   --> A''            
     e( 13 - 13) =    -12.95005  eV     1   --> A'             
     e( 14 - 14) =    -12.93589  eV     1   --> A''            
     e( 15 - 15) =    -12.93503  eV     1   --> A''            
     e( 16 - 16) =    -12.75022  eV     1   --> A'             
     e( 17 - 17) =    -12.65586  eV     1   --> A'             
     e( 18 - 18) =    -12.59799  eV     1   --> A'             
     e( 19 - 19) =    -12.49282  eV     1   --> A'             
     e( 20 - 20) =    -12.43175  eV     1   --> A'             
     e( 21 - 21) =    -12.41710  eV     1   --> A'             
     e( 22 - 22) =    -12.39662  eV     1   --> A''            
     e( 23 - 23) =    -12.38457  eV     1   --> A''            
     e( 24 - 24) =    -12.37774  eV     1   --> A''            
     e( 25 - 25) =      0.84993  eV     1   --> A'             
     e( 26 - 26) =      1.41094  eV     1   --> A'             
     e( 27 - 27) =      8.09733  eV     1   --> A'             
     e( 28 - 28) =      8.19978  eV     1   --> A'             
     e( 29 - 29) =      9.06028  eV     1   --> A'             
     e( 30 - 30) =      9.47939  eV     1   --> A'             
     e( 31 - 31) =     10.01360  eV     1   --> A'             
     e( 32 - 32) =     11.06452  eV     1   --> A'             
     e( 33 - 33) =     11.13688  eV     1   --> A''            
     e( 34 - 34) =     11.59906  eV     1   --> A'             
     e( 35 - 35) =     11.70179  eV     1   --> A'             
     e( 36 - 36) =     11.97528  eV     1   --> A'             
     e( 37 - 37) =     12.01063  eV     1   --> A''            
     e( 38 - 38) =     12.03183  eV     1   --> A'             
     e( 39 - 39) =     12.13268  eV     1   --> A'             
     e( 40 - 40) =     12.19517  eV     1   --> A''            
     e( 41 - 41) =     12.29571  eV     1   --> A''            
     e( 42 - 42) =     13.29655  eV     1   --> A'             
     e( 43 - 43) =     13.34253  eV     1   --> A'             
     e( 44 - 44) =     14.29049  eV     1   --> A''            
     e( 45 - 45) =     14.47946  eV     1   --> A''            
     e( 46 - 46) =     14.60632  eV     1   --> A'             
     e( 47 - 47) =     14.76118  eV     1   --> A'             
     e( 48 - 48) =     14.78570  eV     1   --> A'             
     e( 49 - 49) =     14.87520  eV     1   --> A''            
     e( 50 - 50) =     15.08276  eV     1   --> A''            
     e( 51 - 51) =     15.19135  eV     1   --> A'             
     e( 52 - 52) =     15.30234  eV     1   --> A'             
     e( 53 - 53) =     15.35347  eV     1   --> A''            
     e( 54 - 54) =     15.48412  eV     1   --> A'             
     e( 55 - 55) =     15.57235  eV     1   --> A'             
     e( 56 - 56) =     15.70653  eV     1   --> A'             
     e( 57 - 57) =     15.82822  eV     1   --> A'             
     e( 58 - 58) =     16.24409  eV     1   --> A''            
     e( 59 - 59) =     16.46447  eV     1   --> A'             
     e( 60 - 60) =     16.75882  eV     1   --> A''            
     e( 61 - 61) =     16.79629  eV     1   --> A'             
     e( 62 - 62) =     17.08486  eV     1   --> A'             
     e( 63 - 63) =     17.16756  eV     1   --> A''            
     e( 64 - 64) =     17.27657  eV     1   --> A'             
     e( 65 - 65) =     17.59300  eV     1   --> A'             
     e( 66 - 66) =     17.68778  eV     1   --> A''            
     e( 67 - 67) =     18.39501  eV     1   --> A''            
     e( 68 - 68) =     18.51668  eV     1   --> A'             
     e( 69 - 69) =     18.56596  eV     1   --> A''            
     e( 70 - 70) =     18.70119  eV     1   --> A'             
     e( 71 - 71) =     18.89944  eV     1   --> A'             
     e( 72 - 72) =     19.16404  eV     1   --> A''            
     e( 73 - 73) =     21.17031  eV     1   --> A'             
     e( 74 - 74) =     21.31761  eV     1   --> A'             
     e( 75 - 75) =     21.48292  eV     1   --> A'             
     e( 76 - 76) =     22.48372  eV     1   --> A'             
     e( 77 - 77) =     22.66202  eV     1   --> A''            
     e( 78 - 78) =     22.85865  eV     1   --> A'             
     e( 79 - 79) =     23.33637  eV     1   --> A'             
     e( 80 - 80) =     23.81053  eV     1   --> A'             
     e( 81 - 81) =     23.86754  eV     1   --> A'             
     e( 82 - 82) =     24.06374  eV     1   --> A''            
     e( 83 - 83) =     24.20000  eV     1   --> A''            
     e( 84 - 84) =     24.58132  eV     1   --> A'             
     e( 85 - 85) =     24.72115  eV     1   --> A'             
     e( 86 - 86) =     25.21739  eV     1   --> A'             
     e( 87 - 87) =     25.95279  eV     1   --> A'             
     e( 88 - 88) =     26.17389  eV     1   --> A'             
     e( 89 - 89) =     26.19177  eV     1   --> A''            
     e( 90 - 90) =     26.51139  eV     1   --> A''            
     e( 91 - 91) =     26.60761  eV     1   --> A'             
     e( 92 - 92) =     26.81802  eV     1   --> A'             
     e( 93 - 93) =     27.12604  eV     1   --> A'             
     e( 94 - 94) =     27.67421  eV     1   --> A''            
     e( 95 - 95) =     27.89317  eV     1   --> A''            

 **************************************************************************

 **************************************************************************

                    xk=(   0.20000,   0.11547,   0.00000  )

     Band symmetry, C_s (m)     point group:

     e(  1 -  1) =    -34.95759  eV     1   --> A'             
     e(  2 -  2) =    -34.95038  eV     1   --> A'             
     e(  3 -  3) =    -34.95008  eV     1   --> A'             
     e(  4 -  4) =    -34.51583  eV     1   --> A'             
     e(  5 -  5) =    -34.48330  eV     1   --> A'             
     e(  6 -  6) =    -34.48271  eV     1   --> A'             
     e(  7 -  7) =    -13.27052  eV     1   --> A'             
     e(  8 -  8) =    -13.17652  eV     1   --> A'             
     e(  9 -  9) =    -13.17208  eV     1   --> A'             
     e( 10 - 10) =    -13.04378  eV     1   --> A'             
     e( 11 - 11) =    -12.98227  eV     1   --> A'             
     e( 12 - 12) =    -12.97001  eV     1   --> A''            
     e( 13 - 13) =    -12.94406  eV     1   --> A'             
     e( 14 - 14) =    -12.93660  eV     1   --> A''            
     e( 15 - 15) =    -12.93535  eV     1   --> A''            
     e( 16 - 16) =    -12.75920  eV     1   --> A'             
     e( 17 - 17) =    -12.65238  eV     1   --> A'             
     e( 18 - 18) =    -12.58853  eV     1   --> A'             
     e( 19 - 19) =    -12.49364  eV     1   --> A'             
     e( 20 - 20) =    -12.43665  eV     1   --> A'             
     e( 21 - 21) =    -12.41804  eV     1   --> A'             
     e( 22 - 22) =    -12.39795  eV     1   --> A''            
     e( 23 - 23) =    -12.38419  eV     1   --> A''            
     e( 24 - 24) =    -12.37676  eV     1   --> A''            
     e( 25 - 25) =      0.86271  eV     1   --> A'             
     e( 26 - 26) =      1.39835  eV     1   --> A'             
     e( 27 - 27) =      8.07750  eV     1   --> A'             
     e( 28 - 28) =      8.19967  eV     1   --> A'             
     e( 29 - 29) =      9.02278  eV     1   --> A'             
     e( 30 - 30) =      9.48073  eV     1   --> A'             
     e( 31 - 31) =     10.06999  eV     1   --> A'             
     e( 32 - 32) =     11.07278  eV     1   --> A'             
     e( 33 - 33) =     11.15413  eV     1   --> A''            
     e( 34 - 34) =     11.59489  eV     1   --> A'             
     e( 35 - 35) =     11.71833  eV     1   --> A'             
     e( 36 - 36) =     11.98187  eV     1   --> A''            
     e( 37 - 37) =     11.98726  eV     1   --> A'             
     e( 38 - 38) =     12.06899  eV     1   --> A'             
     e( 39 - 39) =     12.16525  eV     1   --> A'             
     e( 40 - 40) =     12.19546  eV     1   --> A''            
     e( 41 - 41) =     12.30022  eV     1   --> A''            
     e( 42 - 42) =     13.24169  eV     1   --> A'             
     e( 43 - 43) =     13.28984  eV     1   --> A'             
     e( 44 - 44) =     14.25888  eV     1   --> A''            
     e( 45 - 45) =     14.48090  eV     1   --> A''            
     e( 46 - 46) =     14.61241  eV     1   --> A'             
     e( 47 - 47) =     14.77550  eV     1   --> A'             
     e( 48 - 48) =     14.81739  eV     1   --> A'             
     e( 49 - 49) =     14.90646  eV     1   --> A''            
     e( 50 - 50) =     15.08351  eV     1   --> A''            
     e( 51 - 51) =     15.15923  eV     1   --> A'             
     e( 52 - 52) =     15.31242  eV     1   --> A'             
     e( 53 - 53) =     15.39462  eV     1   --> A''            
     e( 54 - 54) =     15.48947  eV     1   --> A'             
     e( 55 - 55) =     15.56458  eV     1   --> A'             
     e( 56 - 56) =     15.67349  eV     1   --> A'             
     e( 57 - 57) =     15.81802  eV     1   --> A'             
     e( 58 - 58) =     16.16264  eV     1   --> A''            
     e( 59 - 59) =     16.46912  eV     1   --> A'             
     e( 60 - 60) =     16.75927  eV     1   --> A'             
     e( 61 - 61) =     16.77436  eV     1   --> A''            
     e( 62 - 62) =     17.02465  eV     1   --> A'             
     e( 63 - 63) =     17.18202  eV     1   --> A''            
     e( 64 - 64) =     17.25961  eV     1   --> A'             
     e( 65 - 65) =     17.62647  eV     1   --> A'             
     e( 66 - 66) =     17.77896  eV     1   --> A''            
     e( 67 - 67) =     18.36060  eV     1   --> A''            
     e( 68 - 68) =     18.53907  eV     1   --> A'             
     e( 69 - 69) =     18.58033  eV     1   --> A''            
     e( 70 - 70) =     18.78048  eV     1   --> A'             
     e( 71 - 71) =     19.00431  eV     1   --> A'             
     e( 72 - 72) =     19.10056  eV     1   --> A''            
     e( 73 - 73) =     21.11485  eV     1   --> A'             
     e( 74 - 74) =     21.25123  eV     1   --> A'             
     e( 75 - 75) =     21.48625  eV     1   --> A'             
     e( 76 - 76) =     22.46594  eV     1   --> A'             
     e( 77 - 77) =     22.64077  eV     1   --> A''            
     e( 78 - 78) =     22.79824  eV     1   --> A'             
     e( 79 - 79) =     23.35073  eV     1   --> A'             
     e( 80 - 80) =     23.80352  eV     1   --> A'             
     e( 81 - 81) =     23.86165  eV     1   --> A'             
     e( 82 - 82) =     24.04223  eV     1   --> A''            
     e( 83 - 83) =     24.23317  eV     1   --> A''            
     e( 84 - 84) =     24.59043  eV     1   --> A'             
     e( 85 - 85) =     24.70528  eV     1   --> A'             
     e( 86 - 86) =     25.32442  eV     1   --> A'             
     e( 87 - 87) =     25.83382  eV     1   --> A'             
     e( 88 - 88) =     26.08294  eV     1   --> A'             
     e( 89 - 89) =     26.12830  eV     1   --> A''            
     e( 90 - 90) =     26.54124  eV     1   --> A''            
     e( 91 - 91) =     26.64784  eV     1   --> A'             
     e( 92 - 92) =     26.78054  eV     1   --> A'             
     e( 93 - 93) =     27.17162  eV     1   --> A'             
     e( 94 - 94) =     27.78081  eV     1   --> A''            
     e( 95 - 95) =     28.04714  eV     1   --> A''            

 **************************************************************************

 **************************************************************************

                    xk=(   0.22500,   0.12990,   0.00000  )

     Band symmetry, C_s (m)     point group:

     e(  1 -  1) =    -34.95735  eV     1   --> A'             
     e(  2 -  2) =    -34.95055  eV     1   --> A'             
     e(  3 -  3) =    -34.95014  eV     1   --> A'             
     e(  4 -  4) =    -34.51609  eV     1   --> A'             
     e(  5 -  5) =    -34.48324  eV     1   --> A'             
     e(  6 -  6) =    -34.48253  eV     1   --> A'             
     e(  7 -  7) =    -13.26774  eV     1   --> A'             
     e(  8 -  8) =    -13.17937  eV     1   --> A'             
     e(  9 -  9) =    -13.17391  eV     1   --> A'             
     e( 10 - 10) =    -13.04399  eV     1   --> A'             
     e( 11 - 11) =    -12.98342  eV     1   --> A'             
     e( 12 - 12) =    -12.96889  eV     1   --> A''            
     e( 13 - 13) =    -12.93826  eV     1   --> A'             
     e( 14 - 14) =    -12.93740  eV     1   --> A''            
     e( 15 - 15) =    -12.93569  eV     1   --> A''            
     e( 16 - 16) =    -12.76748  eV     1   --> A'             
     e( 17 - 17) =    -12.64842  eV     1   --> A'             
     e( 18 - 18) =    -12.57968  eV     1   --> A'             
     e( 19 - 19) =    -12.49451  eV     1   --> A'             
     e( 20 - 20) =    -12.44190  eV     1   --> A'             
     e( 21 - 21) =    -12.41911  eV     1   --> A'             
     e( 22 - 22) =    -12.39922  eV     1   --> A''            
     e( 23 - 23) =    -12.38379  eV     1   --> A''            
     e( 24 - 24) =    -12.37587  eV     1   --> A''            
     e( 25 - 25) =      0.87678  eV     1   --> A'             
     e( 26 - 26) =      1.38448  eV     1   --> A'             
     e( 27 - 27) =      8.05680  eV     1   --> A'             
     e( 28 - 28) =      8.19607  eV     1   --> A'             
     e( 29 - 29) =      8.99509  eV     1   --> A'             
     e( 30 - 30) =      9.48224  eV     1   --> A'             
     e( 31 - 31) =     10.12067  eV     1   --> A'             
     e( 32 - 32) =     11.08157  eV     1   --> A'             
     e( 33 - 33) =     11.17322  eV     1   --> A''            
     e( 34 - 34) =     11.59077  eV     1   --> A'             
     e( 35 - 35) =     11.73273  eV     1   --> A'             
     e( 36 - 36) =     11.95287  eV     1   --> A''            
     e( 37 - 37) =     11.99974  eV     1   --> A'             
     e( 38 - 38) =     12.11032  eV     1   --> A'             
     e( 39 - 39) =     12.19594  eV     1   --> A''            
     e( 40 - 40) =     12.20167  eV     1   --> A'             
     e( 41 - 41) =     12.30213  eV     1   --> A''            
     e( 42 - 42) =     13.18865  eV     1   --> A'             
     e( 43 - 43) =     13.23645  eV     1   --> A'             
     e( 44 - 44) =     14.23067  eV     1   --> A''            
     e( 45 - 45) =     14.48319  eV     1   --> A''            
     e( 46 - 46) =     14.61498  eV     1   --> A'             
     e( 47 - 47) =     14.78676  eV     1   --> A'             
     e( 48 - 48) =     14.84861  eV     1   --> A'             
     e( 49 - 49) =     14.93830  eV     1   --> A''            
     e( 50 - 50) =     15.08660  eV     1   --> A''            
     e( 51 - 51) =     15.12161  eV     1   --> A'             
     e( 52 - 52) =     15.31797  eV     1   --> A'             
     e( 53 - 53) =     15.42794  eV     1   --> A''            
     e( 54 - 54) =     15.48857  eV     1   --> A'             
     e( 55 - 55) =     15.56449  eV     1   --> A'             
     e( 56 - 56) =     15.64425  eV     1   --> A'             
     e( 57 - 57) =     15.81239  eV     1   --> A'             
     e( 58 - 58) =     16.08490  eV     1   --> A''            
     e( 59 - 59) =     16.46326  eV     1   --> A'             
     e( 60 - 60) =     16.73087  eV     1   --> A'             
     e( 61 - 61) =     16.79870  eV     1   --> A''            
     e( 62 - 62) =     16.97360  eV     1   --> A'             
     e( 63 - 63) =     17.19843  eV     1   --> A''            
     e( 64 - 64) =     17.24541  eV     1   --> A'             
     e( 65 - 65) =     17.66044  eV     1   --> A'             
     e( 66 - 66) =     17.86585  eV     1   --> A''            
     e( 67 - 67) =     18.32201  eV     1   --> A''            
     e( 68 - 68) =     18.56009  eV     1   --> A'             
     e( 69 - 69) =     18.59353  eV     1   --> A''            
     e( 70 - 70) =     18.85759  eV     1   --> A'             
     e( 71 - 71) =     19.03391  eV     1   --> A''            
     e( 72 - 72) =     19.10643  eV     1   --> A'             
     e( 73 - 73) =     21.06307  eV     1   --> A'             
     e( 74 - 74) =     21.17918  eV     1   --> A'             
     e( 75 - 75) =     21.49159  eV     1   --> A'             
     e( 76 - 76) =     22.45789  eV     1   --> A'             
     e( 77 - 77) =     22.62077  eV     1   --> A''            
     e( 78 - 78) =     22.73236  eV     1   --> A'             
     e( 79 - 79) =     23.33879  eV     1   --> A'             
     e( 80 - 80) =     23.80088  eV     1   --> A'             
     e( 81 - 81) =     23.85903  eV     1   --> A'             
     e( 82 - 82) =     24.01455  eV     1   --> A''            
     e( 83 - 83) =     24.26680  eV     1   --> A''            
     e( 84 - 84) =     24.60604  eV     1   --> A'             
     e( 85 - 85) =     24.69355  eV     1   --> A'             
     e( 86 - 86) =     25.42003  eV     1   --> A'             
     e( 87 - 87) =     25.72286  eV     1   --> A'             
     e( 88 - 88) =     26.01890  eV     1   --> A'             
     e( 89 - 89) =     26.07664  eV     1   --> A''            
     e( 90 - 90) =     26.58726  eV     1   --> A''            
     e( 91 - 91) =     26.64443  eV     1   --> A'             
     e( 92 - 92) =     26.79898  eV     1   --> A'             
     e( 93 - 93) =     27.22931  eV     1   --> A'             
     e( 94 - 94) =     27.88216  eV     1   --> A''            
     e( 95 - 95) =     28.09148  eV     1   --> A'             

 **************************************************************************

 **************************************************************************

                    xk=(   0.25000,   0.14434,   0.00000  )

     Band symmetry, C_s (m)     point group:

     e(  1 -  1) =    -34.95708  eV     1   --> A'             
     e(  2 -  2) =    -34.95074  eV     1   --> A'             
     e(  3 -  3) =    -34.95021  eV     1   --> A'             
     e(  4 -  4) =    -34.51635  eV     1   --> A'             
     e(  5 -  5) =    -34.48318  eV     1   --> A'             
     e(  6 -  6) =    -34.48234  eV     1   --> A'             
     e(  7 -  7) =    -13.26474  eV     1   --> A'             
     e(  8 -  8) =    -13.18240  eV     1   --> A'             
     e(  9 -  9) =    -13.17580  eV     1   --> A'             
     e( 10 - 10) =    -13.04372  eV     1   --> A'             
     e( 11 - 11) =    -12.98483  eV     1   --> A'             
     e( 12 - 12) =    -12.96768  eV     1   --> A''            
     e( 13 - 13) =    -12.93831  eV     1   --> A''            
     e( 14 - 14) =    -12.93603  eV     1   --> A''            
     e( 15 - 15) =    -12.93279  eV     1   --> A'             
     e( 16 - 16) =    -12.77498  eV     1   --> A'             
     e( 17 - 17) =    -12.64399  eV     1   --> A'             
     e( 18 - 18) =    -12.57158  eV     1   --> A'             
     e( 19 - 19) =    -12.49540  eV     1   --> A'             
     e( 20 - 20) =    -12.44737  eV     1   --> A'             
     e( 21 - 21) =    -12.42034  eV     1   --> A'             
     e( 22 - 22) =    -12.40042  eV     1   --> A''            
     e( 23 - 23) =    -12.38338  eV     1   --> A''            
     e( 24 - 24) =    -12.37505  eV     1   --> A''            
     e( 25 - 25) =      0.89201  eV     1   --> A'             
     e( 26 - 26) =      1.36950  eV     1   --> A'             
     e( 27 - 27) =      8.03570  eV     1   --> A'             
     e( 28 - 28) =      8.18872  eV     1   --> A'             
     e( 29 - 29) =      8.97729  eV     1   --> A'             
     e( 30 - 30) =      9.48402  eV     1   --> A'             
     e( 31 - 31) =     10.16507  eV     1   --> A'             
     e( 32 - 32) =     11.09081  eV     1   --> A'             
     e( 33 - 33) =     11.19395  eV     1   --> A''            
     e( 34 - 34) =     11.58707  eV     1   --> A'             
     e( 35 - 35) =     11.74448  eV     1   --> A'             
     e( 36 - 36) =     11.92377  eV     1   --> A''            
     e( 37 - 37) =     12.01288  eV     1   --> A'             
     e( 38 - 38) =     12.15425  eV     1   --> A'             
     e( 39 - 39) =     12.19668  eV     1   --> A''            
     e( 40 - 40) =     12.24148  eV     1   --> A'             
     e( 41 - 41) =     12.30161  eV     1   --> A''            
     e( 42 - 42) =     13.13819  eV     1   --> A'             
     e( 43 - 43) =     13.18375  eV     1   --> A'             
     e( 44 - 44) =     14.20619  eV     1   --> A''            
     e( 45 - 45) =     14.48611  eV     1   --> A''            
     e( 46 - 46) =     14.61292  eV     1   --> A'             
     e( 47 - 47) =     14.79639  eV     1   --> A'             
     e( 48 - 48) =     14.87898  eV     1   --> A'             
     e( 49 - 49) =     14.96932  eV     1   --> A''            
     e( 50 - 50) =     15.07992  eV     1   --> A'             
     e( 51 - 51) =     15.09337  eV     1   --> A''            
     e( 52 - 52) =     15.31598  eV     1   --> A'             
     e( 53 - 53) =     15.45166  eV     1   --> A''            
     e( 54 - 54) =     15.48232  eV     1   --> A'             
     e( 55 - 55) =     15.56990  eV     1   --> A'             
     e( 56 - 56) =     15.62037  eV     1   --> A'             
     e( 57 - 57) =     15.81415  eV     1   --> A'             
     e( 58 - 58) =     16.01154  eV     1   --> A''            
     e( 59 - 59) =     16.44044  eV     1   --> A'             
     e( 60 - 60) =     16.71603  eV     1   --> A'             
     e( 61 - 61) =     16.83289  eV     1   --> A''            
     e( 62 - 62) =     16.93404  eV     1   --> A'             
     e( 63 - 63) =     17.21697  eV     1   --> A''            
     e( 64 - 64) =     17.23347  eV     1   --> A'             
     e( 65 - 65) =     17.69466  eV     1   --> A'             
     e( 66 - 66) =     17.94718  eV     1   --> A''            
     e( 67 - 67) =     18.27967  eV     1   --> A''            
     e( 68 - 68) =     18.57903  eV     1   --> A'             
     e( 69 - 69) =     18.60261  eV     1   --> A''            
     e( 70 - 70) =     18.93105  eV     1   --> A'             
     e( 71 - 71) =     18.96775  eV     1   --> A''            
     e( 72 - 72) =     19.20273  eV     1   --> A'             
     e( 73 - 73) =     21.01642  eV     1   --> A'             
     e( 74 - 74) =     21.10678  eV     1   --> A'             
     e( 75 - 75) =     21.49848  eV     1   --> A'             
     e( 76 - 76) =     22.45446  eV     1   --> A'             
     e( 77 - 77) =     22.60238  eV     1   --> A''            
     e( 78 - 78) =     22.66567  eV     1   --> A'             
     e( 79 - 79) =     23.30406  eV     1   --> A'             
     e( 80 - 80) =     23.79979  eV     1   --> A'             
     e( 81 - 81) =     23.85518  eV     1   --> A'             
     e( 82 - 82) =     23.98204  eV     1   --> A''            
     e( 83 - 83) =     24.29935  eV     1   --> A''            
     e( 84 - 84) =     24.62606  eV     1   --> A'             
     e( 85 - 85) =     24.69111  eV     1   --> A'             
     e( 86 - 86) =     25.48389  eV     1   --> A'             
     e( 87 - 87) =     25.63220  eV     1   --> A'             
     e( 88 - 88) =     25.99328  eV     1   --> A'             
     e( 89 - 89) =     26.03821  eV     1   --> A''            
     e( 90 - 90) =     26.60826  eV     1   --> A'             
     e( 91 - 91) =     26.64571  eV     1   --> A''            
     e( 92 - 92) =     26.85861  eV     1   --> A'             
     e( 93 - 93) =     27.29864  eV     1   --> A'             
     e( 94 - 94) =     27.97591  eV     1   --> A''            
     e( 95 - 95) =     28.10041  eV     1   --> A'             

 **************************************************************************

 **************************************************************************

                    xk=(   0.27500,   0.15877,   0.00000  )

     Band symmetry, C_s (m)     point group:

     e(  1 -  1) =    -34.95680  eV     1   --> A'             
     e(  2 -  2) =    -34.95095  eV     1   --> A'             
     e(  3 -  3) =    -34.95027  eV     1   --> A'             
     e(  4 -  4) =    -34.51660  eV     1   --> A'             
     e(  5 -  5) =    -34.48312  eV     1   --> A'             
     e(  6 -  6) =    -34.48216  eV     1   --> A'             
     e(  7 -  7) =    -13.26154  eV     1   --> A'             
     e(  8 -  8) =    -13.18558  eV     1   --> A'             
     e(  9 -  9) =    -13.17769  eV     1   --> A'             
     e( 10 - 10) =    -13.04298  eV     1   --> A'             
     e( 11 - 11) =    -12.98652  eV     1   --> A'             
     e( 12 - 12) =    -12.96637  eV     1   --> A''            
     e( 13 - 13) =    -12.93931  eV     1   --> A''            
     e( 14 - 14) =    -12.93636  eV     1   --> A''            
     e( 15 - 15) =    -12.92778  eV     1   --> A'             
     e( 16 - 16) =    -12.78162  eV     1   --> A'             
     e( 17 - 17) =    -12.63910  eV     1   --> A'             
     e( 18 - 18) =    -12.56437  eV     1   --> A'             
     e( 19 - 19) =    -12.49629  eV     1   --> A'             
     e( 20 - 20) =    -12.45288  eV     1   --> A'             
     e( 21 - 21) =    -12.42171  eV     1   --> A'             
     e( 22 - 22) =    -12.40153  eV     1   --> A''            
     e( 23 - 23) =    -12.38296  eV     1   --> A''            
     e( 24 - 24) =    -12.37433  eV     1   --> A''            
     e( 25 - 25) =      0.90820  eV     1   --> A'             
     e( 26 - 26) =      1.35356  eV     1   --> A'             
     e( 27 - 27) =      8.01466  eV     1   --> A'             
     e( 28 - 28) =      8.17790  eV     1   --> A'             
     e( 29 - 29) =      8.96874  eV     1   --> A'             
     e( 30 - 30) =      9.48621  eV     1   --> A'             
     e( 31 - 31) =     10.20274  eV     1   --> A'             
     e( 32 - 32) =     11.10038  eV     1   --> A'             
     e( 33 - 33) =     11.21608  eV     1   --> A''            
     e( 34 - 34) =     11.58424  eV     1   --> A'             
     e( 35 - 35) =     11.75334  eV     1   --> A'             
     e( 36 - 36) =     11.89470  eV     1   --> A''            
     e( 37 - 37) =     12.02679  eV     1   --> A'             
     e( 38 - 38) =     12.19772  eV     1   --> A''            
     e( 39 - 39) =     12.19883  eV     1   --> A'             
     e( 40 - 40) =     12.28410  eV     1   --> A'             
     e( 41 - 41) =     12.29889  eV     1   --> A''            
     e( 42 - 42) =     13.09055  eV     1   --> A'             
     e( 43 - 43) =     13.13330  eV     1   --> A'             
     e( 44 - 44) =     14.18555  eV     1   --> A''            
     e( 45 - 45) =     14.48943  eV     1   --> A''            
     e( 46 - 46) =     14.60607  eV     1   --> A'             
     e( 47 - 47) =     14.80470  eV     1   --> A'             
     e( 48 - 48) =     14.90771  eV     1   --> A'             
     e( 49 - 49) =     14.99780  eV     1   --> A''            
     e( 50 - 50) =     15.03724  eV     1   --> A'             
     e( 51 - 51) =     15.10554  eV     1   --> A''            
     e( 52 - 52) =     15.30588  eV     1   --> A'             
     e( 53 - 53) =     15.46466  eV     1   --> A''            
     e( 54 - 54) =     15.47224  eV     1   --> A'             
     e( 55 - 55) =     15.57659  eV     1   --> A'             
     e( 56 - 56) =     15.60309  eV     1   --> A'             
     e( 57 - 57) =     15.82496  eV     1   --> A'             
     e( 58 - 58) =     15.94324  eV     1   --> A''            
     e( 59 - 59) =     16.39864  eV     1   --> A'             
     e( 60 - 60) =     16.71626  eV     1   --> A'             
     e( 61 - 61) =     16.87734  eV     1   --> A''            
     e( 62 - 62) =     16.90630  eV     1   --> A'             
     e( 63 - 63) =     17.22346  eV     1   --> A'             
     e( 64 - 64) =     17.23779  eV     1   --> A''            
     e( 65 - 65) =     17.72907  eV     1   --> A'             
     e( 66 - 66) =     18.02171  eV     1   --> A''            
     e( 67 - 67) =     18.23421  eV     1   --> A''            
     e( 68 - 68) =     18.59496  eV     1   --> A'             
     e( 69 - 69) =     18.60176  eV     1   --> A''            
     e( 70 - 70) =     18.90866  eV     1   --> A''            
     e( 71 - 71) =     18.99943  eV     1   --> A'             
     e( 72 - 72) =     19.29052  eV     1   --> A'             
     e( 73 - 73) =     20.97537  eV     1   --> A'             
     e( 74 - 74) =     21.03993  eV     1   --> A'             
     e( 75 - 75) =     21.50617  eV     1   --> A'             
     e( 76 - 76) =     22.44909  eV     1   --> A'             
     e( 77 - 77) =     22.58575  eV     1   --> A''            
     e( 78 - 78) =     22.60415  eV     1   --> A'             
     e( 79 - 79) =     23.25354  eV     1   --> A'             
     e( 80 - 80) =     23.79100  eV     1   --> A'             
     e( 81 - 81) =     23.85158  eV     1   --> A'             
     e( 82 - 82) =     23.94644  eV     1   --> A''            
     e( 83 - 83) =     24.32936  eV     1   --> A''            
     e( 84 - 84) =     24.64351  eV     1   --> A'             
     e( 85 - 85) =     24.70407  eV     1   --> A'             
     e( 86 - 86) =     25.48583  eV     1   --> A'             
     e( 87 - 87) =     25.58377  eV     1   --> A'             
     e( 88 - 88) =     26.01420  eV     1   --> A''            
     e( 89 - 89) =     26.01610  eV     1   --> A'             
     e( 90 - 90) =     26.57082  eV     1   --> A'             
     e( 91 - 91) =     26.71172  eV     1   --> A''            
     e( 92 - 92) =     26.92672  eV     1   --> A'             
     e( 93 - 93) =     27.37857  eV     1   --> A'             
     e( 94 - 94) =     28.05750  eV     1   --> A''            
     e( 95 - 95) =     28.07999  eV     1   --> A'             

 **************************************************************************

 **************************************************************************

                    xk=(   0.30000,   0.17321,   0.00000  )

     Band symmetry, C_s (m)     point group:

     e(  1 -  1) =    -34.95649  eV     1   --> A'             
     e(  2 -  2) =    -34.95117  eV     1   --> A'             
     e(  3 -  3) =    -34.95033  eV     1   --> A'             
     e(  4 -  4) =    -34.51685  eV     1   --> A'             
     e(  5 -  5) =    -34.48306  eV     1   --> A'             
     e(  6 -  6) =    -34.48199  eV     1   --> A'             
     e(  7 -  7) =    -13.25818  eV     1   --> A'             
     e(  8 -  8) =    -13.18889  eV     1   --> A'             
     e(  9 -  9) =    -13.17952  eV     1   --> A'             
     e( 10 - 10) =    -13.04180  eV     1   --> A'             
     e( 11 - 11) =    -12.98850  eV     1   --> A'             
     e( 12 - 12) =    -12.96498  eV     1   --> A''            
     e( 13 - 13) =    -12.94041  eV     1   --> A''            
     e( 14 - 14) =    -12.93668  eV     1   --> A''            
     e( 15 - 15) =    -12.92334  eV     1   --> A'             
     e( 16 - 16) =    -12.78735  eV     1   --> A'             
     e( 17 - 17) =    -12.63378  eV     1   --> A'             
     e( 18 - 18) =    -12.55828  eV     1   --> A'             
     e( 19 - 19) =    -12.49716  eV     1   --> A'             
     e( 20 - 20) =    -12.45819  eV     1   --> A'             
     e( 21 - 21) =    -12.42321  eV     1   --> A'             
     e( 22 - 22) =    -12.40256  eV     1   --> A''            
     e( 23 - 23) =    -12.38255  eV     1   --> A''            
     e( 24 - 24) =    -12.37369  eV     1   --> A''            
     e( 25 - 25) =      0.92514  eV     1   --> A'             
     e( 26 - 26) =      1.33690  eV     1   --> A'             
     e( 27 - 27) =      7.99413  eV     1   --> A'             
     e( 28 - 28) =      8.16440  eV     1   --> A'             
     e( 29 - 29) =      8.96813  eV     1   --> A'             
     e( 30 - 30) =      9.48894  eV     1   --> A'             
     e( 31 - 31) =     10.23341  eV     1   --> A'             
     e( 32 - 32) =     11.11012  eV     1   --> A'             
     e( 33 - 33) =     11.23931  eV     1   --> A''            
     e( 34 - 34) =     11.58268  eV     1   --> A'             
[...]
     e( 62 - 62) =     17.42869  eV     1   --> A_2  L_2       
     e( 63 - 63) =     17.70172  eV     1   --> A_1  L_1       
     e( 64 - 65) =     17.97502  eV     2   --> E    L_3       
     e( 66 - 67) =     18.33448  eV     2   --> E    L_3       
     e( 68 - 68) =     18.43373  eV     1   --> A_1  L_1       
     e( 69 - 70) =     19.70387  eV     2   --> E    L_3       
     e( 71 - 71) =     19.90969  eV     1   --> A_2  L_2       
     e( 72 - 73) =     20.12107  eV     2   --> E    L_3       
     e( 74 - 74) =     20.24409  eV     1   --> A_1  L_1       
     e( 75 - 76) =     21.02650  eV     2   --> E    L_3       
     e( 77 - 77) =     21.42644  eV     1   --> A_2  L_2       
     e( 78 - 78) =     21.82716  eV     1   --> A_1  L_1       
     e( 79 - 80) =     22.41922  eV     2   --> E    L_3       
     e( 81 - 81) =     23.97012  eV     1   --> A_1  L_1       
     e( 82 - 83) =     24.18687  eV     2   --> E    L_3       
     e( 84 - 84) =     24.70338  eV     1   --> A_2  L_2       
     e( 85 - 85) =     25.12893  eV     1   --> A_1  L_1       
     e( 86 - 87) =     25.61210  eV     2   --> E    L_3       
     e( 88 - 89) =     26.19207  eV     2   --> E    L_3       
     e( 90 - 91) =     26.91467  eV     2   --> E    L_3       
     e( 92 - 92) =     27.09240  eV     1   --> A_1  L_1       
     e( 93 - 94) =     27.49153  eV     2   --> E    L_3       
     e( 95 - 95) =     28.48655  eV     1   -->   ?

 **************************************************************************

 **************************************************************************

                    xk=(   0.66667,   0.00000,   0.90980  )

     Band symmetry, C_3v (3m)   point group:

     e(  1 -  2) =    -34.94170  eV     2   --> E    L_3       
     e(  3 -  3) =    -34.94008  eV     1   --> A_1  L_1       
     e(  4 -  4) =    -34.50994  eV     1   --> A_1  L_1       
     e(  5 -  6) =    -34.47507  eV     2   --> E    L_3       
     e(  7 -  8) =    -13.18915  eV     2   --> E    L_3       
     e(  9 - 10) =    -13.16994  eV     2   --> E    L_3       
     e( 11 - 11) =    -13.13498  eV     1   --> A_2  L_2       
     e( 12 - 12) =    -13.13354  eV     1   --> A_1  L_1       
     e( 13 - 13) =    -12.97428  eV     1   --> A_1  L_1       
     e( 14 - 15) =    -12.87687  eV     2   --> E    L_3       
     e( 16 - 16) =    -12.78720  eV     1   --> A_1  L_1       
     e( 17 - 18) =    -12.65048  eV     2   --> E    L_3       
     e( 19 - 19) =    -12.52367  eV     1   --> A_2  L_2       
     e( 20 - 21) =    -12.49005  eV     2   --> E    L_3       
     e( 22 - 22) =    -12.45565  eV     1   --> A_1  L_1       
     e( 23 - 24) =    -12.44624  eV     2   --> E    L_3       
     e( 25 - 26) =      1.83392  eV     2   --> E    L_3       
     e( 27 - 28) =      8.11635  eV     2   --> E    L_3       
     e( 29 - 29) =      8.99141  eV     1   --> A_1  L_1       
     e( 30 - 31) =      9.40530  eV     2   --> E    L_3       
     e( 32 - 32) =      9.50219  eV     1   --> A_2  L_2       
     e( 33 - 33) =     10.97860  eV     1   --> A_1  L_1       
     e( 34 - 35) =     11.98044  eV     2   --> E    L_3       
     e( 36 - 36) =     12.08043  eV     1   --> A_1  L_1       
     e( 37 - 38) =     12.12079  eV     2   --> E    L_3       
     e( 39 - 39) =     12.47304  eV     1   --> A_1  L_1       
     e( 40 - 40) =     12.90760  eV     1   --> A_2  L_2       
     e( 41 - 42) =     13.02816  eV     2   --> E    L_3       
     e( 43 - 43) =     13.19485  eV     1   --> A_1  L_1       
     e( 44 - 45) =     13.20358  eV     2   --> E    L_3       
     e( 46 - 47) =     13.58369  eV     2   --> E    L_3       
     e( 48 - 48) =     13.82109  eV     1   --> A_1  L_1       
     e( 49 - 50) =     14.99291  eV     2   --> E    L_3       
     e( 51 - 52) =     15.66022  eV     2   --> E    L_3       
     e( 53 - 53) =     15.96774  eV     1   --> A_2  L_2       
     e( 54 - 55) =     16.21893  eV     2   --> E    L_3       
     e( 56 - 56) =     16.24987  eV     1   --> A_1  L_1       
     e( 57 - 58) =     16.67013  eV     2   --> E    L_3       
     e( 59 - 60) =     17.37650  eV     2   --> E    L_3       
     e( 61 - 61) =     17.41007  eV     1   --> A_2  L_2       
     e( 62 - 62) =     17.43121  eV     1   --> A_1  L_1       
     e( 63 - 63) =     17.73359  eV     1   --> A_1  L_1       
     e( 64 - 65) =     18.06859  eV     2   --> E    L_3       
     e( 66 - 67) =     18.37514  eV     2   --> E    L_3       
     e( 68 - 68) =     18.45829  eV     1   --> A_1  L_1       
     e( 69 - 70) =     19.68782  eV     2   --> E    L_3       
     e( 71 - 71) =     19.95470  eV     1   --> A_2  L_2       
     e( 72 - 73) =     20.00475  eV     2   --> E    L_3       
     e( 74 - 74) =     20.07061  eV     1   --> A_1  L_1       
     e( 75 - 76) =     20.99615  eV     2   --> E    L_3       
     e( 77 - 77) =     21.42714  eV     1   --> A_2  L_2       
     e( 78 - 78) =     21.65990  eV     1   --> A_1  L_1       
     e( 79 - 80) =     22.19621  eV     2   --> E    L_3       
     e( 81 - 81) =     24.05156  eV     1   --> A_1  L_1       
     e( 82 - 83) =     24.25496  eV     2   --> E    L_3       
     e( 84 - 84) =     24.66311  eV     1   --> A_2  L_2       
     e( 85 - 85) =     24.93546  eV     1   --> A_1  L_1       
     e( 86 - 87) =     25.58122  eV     2   --> E    L_3       
     e( 88 - 89) =     26.18708  eV     2   --> E    L_3       
     e( 90 - 90) =     27.07168  eV     1   --> A_1  L_1       
     e( 91 - 92) =     27.13827  eV     2   --> E    L_3       
     e( 93 - 94) =     27.69304  eV     2   --> E    L_3       
     e( 95 - 95) =     28.43347  eV     1   -->   ?

 **************************************************************************

 **************************************************************************

                    xk=(   0.66667,   0.00000,   0.96332  )

     Band symmetry, C_3v (3m)   point group:

     e(  1 -  2) =    -34.94133  eV     2   --> E    L_3       
     e(  3 -  3) =    -34.93971  eV     1   --> A_1  L_1       
     e(  4 -  4) =    -34.50967  eV     1   --> A_1  L_1       
     e(  5 -  6) =    -34.47486  eV     2   --> E    L_3       
     e(  7 -  8) =    -13.18856  eV     2   --> E    L_3       
     e(  9 - 10) =    -13.17581  eV     2   --> E    L_3       
     e( 11 - 11) =    -13.13808  eV     1   --> A_1  L_1       
     e( 12 - 12) =    -13.13313  eV     1   --> A_2  L_2       
     e( 13 - 13) =    -12.97774  eV     1   --> A_1  L_1       
     e( 14 - 15) =    -12.87116  eV     2   --> E    L_3       
     e( 16 - 16) =    -12.78621  eV     1   --> A_1  L_1       
     e( 17 - 18) =    -12.65526  eV     2   --> E    L_3       
     e( 19 - 19) =    -12.52443  eV     1   --> A_2  L_2       
     e( 20 - 21) =    -12.49377  eV     2   --> E    L_3       
     e( 22 - 22) =    -12.45704  eV     1   --> A_1  L_1       
     e( 23 - 24) =    -12.44560  eV     2   --> E    L_3       
     e( 25 - 26) =      1.86112  eV     2   --> E    L_3       
     e( 27 - 28) =      8.04709  eV     2   --> E    L_3       
     e( 29 - 29) =      9.04249  eV     1   --> A_1  L_1       
     e( 30 - 31) =      9.41302  eV     2   --> E    L_3       
     e( 32 - 32) =      9.49347  eV     1   --> A_2  L_2       
     e( 33 - 33) =     10.99258  eV     1   --> A_1  L_1       
     e( 34 - 35) =     11.99854  eV     2   --> E    L_3       
     e( 36 - 37) =     12.10812  eV     2   --> E    L_3       
     e( 38 - 38) =     12.10991  eV     1   --> A_1  L_1       
     e( 39 - 39) =     12.47511  eV     1   --> A_1  L_1       
     e( 40 - 40) =     12.88253  eV     1   --> A_2  L_2       
     e( 41 - 42) =     13.01748  eV     2   --> E    L_3       
     e( 43 - 44) =     13.18480  eV     2   --> E    L_3       
     e( 45 - 45) =     13.25655  eV     1   --> A_1  L_1       
     e( 46 - 47) =     13.58839  eV     2   --> E    L_3       
     e( 48 - 48) =     13.70193  eV     1   --> A_1  L_1       
     e( 49 - 50) =     15.02058  eV     2   --> E    L_3       
     e( 51 - 52) =     15.67298  eV     2   --> E    L_3       
     e( 53 - 53) =     15.98231  eV     1   --> A_2  L_2       
     e( 54 - 54) =     16.27553  eV     1   --> A_1  L_1       
     e( 55 - 56) =     16.32488  eV     2   --> E    L_3       
     e( 57 - 58) =     16.62781  eV     2   --> E    L_3       
     e( 59 - 59) =     17.39332  eV     1   --> A_2  L_2       
     e( 60 - 61) =     17.40550  eV     2   --> E    L_3       
     e( 62 - 62) =     17.52881  eV     1   --> A_1  L_1       
     e( 63 - 63) =     17.74367  eV     1   --> A_1  L_1       
     e( 64 - 65) =     18.11812  eV     2   --> E    L_3       
     e( 66 - 67) =     18.44318  eV     2   --> E    L_3       
     e( 68 - 68) =     18.49209  eV     1   --> A_1  L_1       
     e( 69 - 70) =     19.66745  eV     2   --> E    L_3       
     e( 71 - 72) =     19.88092  eV     2   --> E    L_3       
     e( 73 - 73) =     19.92282  eV     1   --> A_1  L_1       
     e( 74 - 74) =     19.98274  eV     1   --> A_2  L_2       
     e( 75 - 76) =     21.00903  eV     2   --> E    L_3       
     e( 77 - 77) =     21.43698  eV     1   --> A_2  L_2       
     e( 78 - 78) =     21.53440  eV     1   --> A_1  L_1       
     e( 79 - 80) =     22.00132  eV     2   --> E    L_3       
     e( 81 - 81) =     24.15265  eV     1   --> A_1  L_1       
     e( 82 - 83) =     24.32531  eV     2   --> E    L_3       
     e( 84 - 84) =     24.62894  eV     1   --> A_2  L_2       
     e( 85 - 85) =     24.75109  eV     1   --> A_1  L_1       
     e( 86 - 87) =     25.53552  eV     2   --> E    L_3       
     e( 88 - 89) =     26.13983  eV     2   --> E    L_3       
     e( 90 - 90) =     27.05367  eV     1   --> A_1  L_1       
     e( 91 - 92) =     27.31509  eV     2   --> E    L_3       
     e( 93 - 94) =     27.97164  eV     2   --> E    L_3       
     e( 95 - 95) =     28.37054  eV     1   -->   ?

 **************************************************************************

 **************************************************************************

                    xk=(   0.66667,   0.00000,   1.01684  )

     Band symmetry, C_3v (3m)   point group:

     e(  1 -  2) =    -34.94111  eV     2   --> E    L_3       
     e(  3 -  3) =    -34.93948  eV     1   --> A_1  L_1       
     e(  4 -  4) =    -34.50951  eV     1   --> A_1  L_1       
     e(  5 -  6) =    -34.47473  eV     2   --> E    L_3       
     e(  7 -  8) =    -13.18835  eV     2   --> E    L_3       
     e(  9 - 10) =    -13.17924  eV     2   --> E    L_3       
     e( 11 - 11) =    -13.14084  eV     1   --> A_1  L_1       
     e( 12 - 12) =    -13.13200  eV     1   --> A_2  L_2       
     e( 13 - 13) =    -12.97990  eV     1   --> A_1  L_1       
     e( 14 - 15) =    -12.86753  eV     2   --> E    L_3       
     e( 16 - 16) =    -12.78557  eV     1   --> A_1  L_1       
     e( 17 - 18) =    -12.65832  eV     2   --> E    L_3       
     e( 19 - 19) =    -12.52489  eV     1   --> A_2  L_2       
     e( 20 - 21) =    -12.49606  eV     2   --> E    L_3       
     e( 22 - 22) =    -12.45790  eV     1   --> A_1  L_1       
     e( 23 - 24) =    -12.44519  eV     2   --> E    L_3       
     e( 25 - 26) =      1.87793  eV     2   --> E    L_3       
     e( 27 - 28) =      8.00447  eV     2   --> E    L_3       
     e( 29 - 29) =      9.07397  eV     1   --> A_1  L_1       
     e( 30 - 31) =      9.41818  eV     2   --> E    L_3       
     e( 32 - 32) =      9.48812  eV     1   --> A_2  L_2       
     e( 33 - 33) =     11.00055  eV     1   --> A_1  L_1       
     e( 34 - 35) =     12.01280  eV     2   --> E    L_3       
     e( 36 - 37) =     12.09780  eV     2   --> E    L_3       
     e( 38 - 38) =     12.12939  eV     1   --> A_1  L_1       
     e( 39 - 39) =     12.47481  eV     1   --> A_1  L_1       
     e( 40 - 40) =     12.86751  eV     1   --> A_2  L_2       
     e( 41 - 42) =     13.00698  eV     2   --> E    L_3       
     e( 43 - 44) =     13.17411  eV     2   --> E    L_3       
     e( 45 - 45) =     13.32933  eV     1   --> A_1  L_1       
     e( 46 - 47) =     13.59352  eV     2   --> E    L_3       
     e( 48 - 48) =     13.59363  eV     1   --> A_1  L_1       
     e( 49 - 50) =     15.03768  eV     2   --> E    L_3       
     e( 51 - 52) =     15.68037  eV     2   --> E    L_3       
     e( 53 - 53) =     15.99202  eV     1   --> A_2  L_2       
     e( 54 - 54) =     16.29158  eV     1   --> A_1  L_1       
     e( 55 - 56) =     16.41991  eV     2   --> E    L_3       
     e( 57 - 58) =     16.57146  eV     2   --> E    L_3       
     e( 59 - 59) =     17.38172  eV     1   --> A_2  L_2       
     e( 60 - 61) =     17.43241  eV     2   --> E    L_3       
     e( 62 - 62) =     17.61456  eV     1   --> A_1  L_1       
     e( 63 - 63) =     17.72718  eV     1   --> A_1  L_1       
     e( 64 - 65) =     18.13384  eV     2   --> E    L_3       
     e( 66 - 67) =     18.51111  eV     2   --> E    L_3       
     e( 68 - 68) =     18.52320  eV     1   --> A_1  L_1       
     e( 69 - 70) =     19.65136  eV     2   --> E    L_3       
     e( 71 - 72) =     19.78248  eV     2   --> E    L_3       
     e( 73 - 73) =     19.82015  eV     1   --> A_1  L_1       
     e( 74 - 74) =     19.99770  eV     1   --> A_2  L_2       
     e( 75 - 76) =     21.04084  eV     2   --> E    L_3       
     e( 77 - 77) =     21.44710  eV     1   --> A_2  L_2       
     e( 78 - 78) =     21.45660  eV     1   --> A_1  L_1       
     e( 79 - 80) =     21.86069  eV     2   --> E    L_3       
     e( 81 - 81) =     24.27189  eV     1   --> A_1  L_1       
     e( 82 - 83) =     24.37998  eV     2   --> E    L_3       
     e( 84 - 84) =     24.58056  eV     1   --> A_1  L_1       
     e( 85 - 85) =     24.60603  eV     1   --> A_2  L_2       
     e( 86 - 87) =     25.49587  eV     2   --> E    L_3       
     e( 88 - 89) =     26.10012  eV     2   --> E    L_3       
     e( 90 - 90) =     27.04150  eV     1   --> A_1  L_1       
     e( 91 - 92) =     27.42460  eV     2   --> E    L_3       
     e( 93 - 94) =     28.14335  eV     2   --> E    L_3       
     e( 95 - 95) =     28.40668  eV     1   -->   ?

 **************************************************************************

 **************************************************************************

                    xk=(   0.66667,   0.00000,   1.07036  )

     point group D_3h (-62m)
     there are  6 classes
     the character table:

       E     2C3   3C2   s_h   2S3   3s_v 
A'_1   1.00  1.00  1.00  1.00  1.00  1.00
A'_2   1.00  1.00 -1.00  1.00  1.00 -1.00
E'     2.00 -1.00  0.00  2.00 -1.00  0.00
A''1   1.00  1.00  1.00 -1.00 -1.00 -1.00
A''2   1.00  1.00 -1.00 -1.00 -1.00  1.00
E''    2.00 -1.00  0.00 -2.00  1.00  0.00

     the symmetry operations in each class and the name of the first element:

     E        1
                                                                 
     2C3      3    4
                                                                 
     3C2      2    5    6
                                                                 
     s_h      7
                                                                 
     2S3      9   10
                                                                 
     3s_v     8   12   11
                                                                 

     Band symmetry, D_3h (-62m) point group:

     e(  1 -  2) =    -34.94104  eV     2   --> E''            
     e(  3 -  3) =    -34.93941  eV     1   --> A''2           
     e(  4 -  4) =    -34.50945  eV     1   --> A'_1           
     e(  5 -  6) =    -34.47468  eV     2   --> E'             
     e(  7 -  8) =    -13.18833  eV     2   --> E'             
     e(  9 - 10) =    -13.18033  eV     2   --> E''            
     e( 11 - 11) =    -13.14177  eV     1   --> A'_1           
     e( 12 - 12) =    -13.13162  eV     1   --> A''1           
     e( 13 - 13) =    -12.98063  eV     1   --> A''2           
     e( 14 - 15) =    -12.86629  eV     2   --> E''            
     e( 16 - 16) =    -12.78534  eV     1   --> A'_1           
     e( 17 - 18) =    -12.65937  eV     2   --> E'             
     e( 19 - 19) =    -12.52505  eV     1   --> A'_2           
     e( 20 - 21) =    -12.49684  eV     2   --> E''            
     e( 22 - 22) =    -12.45818  eV     1   --> A''2           
     e( 23 - 24) =    -12.44506  eV     2   --> E'             
     e( 25 - 26) =      1.88361  eV     2   --> E'             
     e( 27 - 28) =      7.99009  eV     2   --> E''            
     e( 29 - 29) =      9.08461  eV     1   --> A'_1           
     e( 30 - 31) =      9.41998  eV     2   --> E'             
     e( 32 - 32) =      9.48631  eV     1   --> A'_2           
     e( 33 - 33) =     11.00313  eV     1   --> A''2           
     e( 34 - 35) =     12.01857  eV     2   --> E'             
     e( 36 - 37) =     12.09348  eV     2   --> E''            
     e( 38 - 38) =     12.13631  eV     1   --> A'_1           
     e( 39 - 39) =     12.47428  eV     1   --> A''2           
     e( 40 - 40) =     12.86252  eV     1   --> A''1           
     e( 41 - 42) =     13.00278  eV     2   --> E''            
     e( 43 - 44) =     13.17064  eV     2   --> E'             
     e( 45 - 45) =     13.37679  eV     1   --> A''2           
     e( 46 - 46) =     13.53420  eV     1   --> A'_1           
     e( 47 - 48) =     13.59564  eV     2   --> E''            
     e( 49 - 50) =     15.04345  eV     2   --> E'             
     e( 51 - 52) =     15.68281  eV     2   --> E''            
     e( 53 - 53) =     15.99544  eV     1   --> A'_2           
     e( 54 - 54) =     16.29706  eV     1   --> A''2           
     e( 55 - 56) =     16.49888  eV     2   --> E'             
     e( 57 - 58) =     16.50536  eV     2   --> E''            
     e( 59 - 59) =     17.37758  eV     1   --> A''1           
     e( 60 - 61) =     17.44355  eV     2   --> E''            
     e( 62 - 62) =     17.67541  eV     1   --> A''2           
     e( 63 - 63) =     17.69018  eV     1   --> A'_1           
     e( 64 - 65) =     18.13629  eV     2   --> E'             
     e( 66 - 66) =     18.53619  eV     1   --> A'_1           
     e( 67 - 68) =     18.53970  eV     2   --> E'             
     e( 69 - 70) =     19.64571  eV     2   --> E'             
     e( 71 - 72) =     19.74381  eV     2   --> E''            
     e( 73 - 73) =     19.78281  eV     1   --> A''2           
     e( 74 - 74) =     20.00236  eV     1   --> A'_2           
     e( 75 - 76) =     21.05791  eV     2   --> E''            
     e( 77 - 77) =     21.43024  eV     1   --> A'_1           
     e( 78 - 78) =     21.45122  eV     1   --> A''1           
     e( 79 - 80) =     21.80743  eV     2   --> E'             
     e( 81 - 81) =     24.37836  eV     1   --> A''2           
     e( 82 - 83) =     24.40095  eV     2   --> E''            
     e( 84 - 84) =     24.45677  eV     1   --> A'_1           
     e( 85 - 85) =     24.59797  eV     1   --> A'_2           
     e( 86 - 87) =     25.47988  eV     2   --> E'             
     e( 88 - 89) =     26.08561  eV     2   --> E''            
     e( 90 - 90) =     27.03721  eV     1   --> A''2           
     e( 91 - 92) =     27.46385  eV     2   --> E''            
     e( 93 - 94) =     28.15443  eV     2   --> E'             
     e( 95 - 95) =     28.48617  eV     1   -->   ?

 **************************************************************************

     BANDS        :  26m55.58s CPU  29m12.33s WALL


   This run was terminated on:  13:31:12   6Aug2025            

=------------------------------------------------------------------------------=
   JOB DONE.
=------------------------------------------------------------------------------=
