
     Program PWSCF v.7.4.1 starts on  6Aug2025 at  8:54:18 

     This program is part of the open-source Quantum ESPRESSO suite
     for quantum simulation of materials; please cite
         "P. Giannozzi et al., J. Phys.:Condens. Matter 21 395502 (2009);
         "P. Giannozzi et al., J. Phys.:Condens. Matter 29 465901 (2017);
         "P. Giannozzi et al., J. Chem. Phys. 152 154105 (2020);
          URL http://www.quantum-espresso.org", 
     in publications or presentations arising from this work. More details at
     http://www.quantum-espresso.org/quote

     Parallel version (MPI), running on     2 processors

     MPI processes distributed on     1 nodes
     7915 MiB available memory on the printing compute node when the environment starts

     Waiting for input...
     Reading input from standard input
Warning: card &IONS ignored
Warning: card     ION_DYNAMICS          = "BFGS" ignored
Warning: card / ignored
Warning: card &CELL ignored
Warning: card / ignored

     Current dimensions of program PWSCF are:
     Max number of different atomic species (ntypx) = 10
     Max number of k-points (npk) = 120000
     Max angular momentum in pseudopotentials (lmaxx) =  4
     Message from routine input:
     WARNING: "startingwfc" set to atomic+random may spoil restart
     Message from routine input:
     WARNING: "startingpot" set to atomic may spoil restart
     file Co.pbe-nd-rrkjus.upf: wavefunction(s)  4S 3D renormalized

     R & G space division:  proc/nbgrp/npool/nimage =       2
     Subspace diagonalization in iterative solution of the eigenvalue problem:
     a serial algorithm will be used


     Parallelization info
     --------------------
     sticks:   dense  smooth     PW     G-vecs:    dense   smooth      PW
     Min        2688    1785    513                74108    40291    6144
     Max        2689    1786    514                74109    40292    6145
     Sum        5377    3571   1027               148217    80583   12289

     Using Slab Decomposition



     bravais-lattice index     =            4
     lattice parameter (alat)  =      14.6990  a.u.
     unit-cell volume          =    1284.7966 (a.u.)^3
     number of atoms/cell      =            9
     number of atomic types    =            3
     number of electrons       =        93.00
     number of Kohn-Sham states=           56
     kinetic-energy cutoff     =      60.0000  Ry
     charge density cutoff     =     360.0000  Ry
     Exchange-correlation= SLA  PW   PBE  PBE
                           (   1   4   3   4   0   0   0)

     celldm(1)=  14.698989  celldm(2)=   0.000000  celldm(3)=   0.467134
     celldm(4)=   0.000000  celldm(5)=   0.000000  celldm(6)=   0.000000

     crystal axes: (cart. coord. in units of alat)
               a(1) = (   1.000000   0.000000   0.000000 )  
               a(2) = (  -0.500000   0.866025   0.000000 )  
               a(3) = (   0.000000   0.000000   0.467134 )  

     reciprocal axes: (cart. coord. in units 2 pi/alat)
               b(1) = (  1.000000  0.577350 -0.000000 )  
               b(2) = (  0.000000  1.154701  0.000000 )  
               b(3) = (  0.000000 -0.000000  2.140714 )  


     PseudoPot. # 1 for Zr read from file:
     /home/tauqeer/Zr6MTe2/sudopoten/Zr.pbe-nsp-van.upf
     MD5 check sum: f06f7249673c13908de31cca45056a07
     Pseudo is Ultrasoft + core correction, Zval = 12.0
     Generated by new atomic code, or converted to UPF format
     Using radial grid of  887 points,  6 beta functions with: 
                l(1) =   0
                l(2) =   0
                l(3) =   1
                l(4) =   1
                l(5) =   2
                l(6) =   2
     Q(r) pseudized with  6 coefficients,  rinner =    1.200   1.200   1.200
                                                       1.200   1.200

     PseudoPot. # 2 for Co read from file:
     /home/tauqeer/Zr6MTe2/sudopoten/Co.pbe-nd-rrkjus.upf
     MD5 check sum: fa92598a13981d18d918d1aa5ec52a54
     Pseudo is Ultrasoft + core correction, Zval =  9.0
     Generated by new atomic code, or converted to UPF format
     Using radial grid of  961 points,  6 beta functions with: 
                l(1) =   0
                l(2) =   0
                l(3) =   1
                l(4) =   1
                l(5) =   2
                l(6) =   2
     Q(r) pseudized with 0 coefficients 


     PseudoPot. # 3 for Te read from file:
     /home/tauqeer/Zr6MTe2/sudopoten/Te.pbe-rrkj.upf
     MD5 check sum: 22c11190d1be98e87836461ecdaaa002
     Pseudo is Norm-conserving, Zval =  6.0
     Generated by new atomic code, or converted to UPF format
     Using radial grid of 1191 points,  3 beta functions with: 
                l(1) =   0
                l(2) =   0
                l(3) =   2

     atomic species   valence    mass     pseudopotential
     Zr               12.00    91.22400     Zr( 1.00)
     Co                9.00    58.93320     Co( 1.00)
     Te                6.00   127.60000     Te( 1.00)

     12 Sym. Ops. (no inversion) found



   Cartesian axes

     site n.     atom                  positions (alat units)
         1        Zr     tau(   1) = (   0.1186974   0.2055899   0.0000000  )
         2        Zr     tau(   2) = (   0.7626053   0.0000000   0.0000000  )
         3        Zr     tau(   3) = (  -0.3813026   0.6604355   0.0000000  )
         4        Zr     tau(   4) = (   0.2975946   0.5154489   0.2335668  )
         5        Zr     tau(   5) = (   0.4048109   0.0000000   0.2335668  )
         6        Zr     tau(   6) = (  -0.2024054   0.3505765   0.2335668  )
         7        Co     tau(   7) = (   0.0000000   0.0000000   0.2335668  )
         8        Te     tau(   8) = (   0.5000000   0.2886751   0.0000000  )
         9        Te     tau(   9) = (  -0.0000000   0.5773503   0.0000000  )

     number of k points=    98  Gaussian smearing, width (Ry)=  0.0100
                       cart. coord. in units 2pi/alat
        k(    1) = (   0.0000000   0.0000000   0.0000000), wk =   0.0016667
        k(    2) = (   0.0000000   0.0000000   0.1783928), wk =   0.0033333
        k(    3) = (   0.0000000   0.0000000   0.3567857), wk =   0.0033333
        k(    4) = (   0.0000000   0.0000000   0.5351785), wk =   0.0033333
        k(    5) = (   0.0000000   0.0000000   0.7135713), wk =   0.0033333
        k(    6) = (   0.0000000   0.0000000   0.8919642), wk =   0.0033333
        k(    7) = (   0.0000000   0.0000000  -1.0703570), wk =   0.0016667
        k(    8) = (   0.0000000   0.1154701   0.0000000), wk =   0.0100000
        k(    9) = (   0.0000000   0.1154701   0.1783928), wk =   0.0200000
        k(   10) = (   0.0000000   0.1154701   0.3567857), wk =   0.0200000
        k(   11) = (   0.0000000   0.1154701   0.5351785), wk =   0.0200000
        k(   12) = (   0.0000000   0.1154701   0.7135713), wk =   0.0200000
        k(   13) = (   0.0000000   0.1154701   0.8919642), wk =   0.0200000
        k(   14) = (   0.0000000   0.1154701  -1.0703570), wk =   0.0100000
        k(   15) = (   0.0000000   0.2309401   0.0000000), wk =   0.0100000
        k(   16) = (   0.0000000   0.2309401   0.1783928), wk =   0.0200000
        k(   17) = (   0.0000000   0.2309401   0.3567857), wk =   0.0200000
        k(   18) = (   0.0000000   0.2309401   0.5351785), wk =   0.0200000
        k(   19) = (   0.0000000   0.2309401   0.7135713), wk =   0.0200000
        k(   20) = (   0.0000000   0.2309401   0.8919642), wk =   0.0200000
        k(   21) = (   0.0000000   0.2309401  -1.0703570), wk =   0.0100000
        k(   22) = (   0.0000000   0.3464102   0.0000000), wk =   0.0100000
        k(   23) = (   0.0000000   0.3464102   0.1783928), wk =   0.0200000
        k(   24) = (   0.0000000   0.3464102   0.3567857), wk =   0.0200000
        k(   25) = (   0.0000000   0.3464102   0.5351785), wk =   0.0200000
        k(   26) = (   0.0000000   0.3464102   0.7135713), wk =   0.0200000
        k(   27) = (   0.0000000   0.3464102   0.8919642), wk =   0.0200000
        k(   28) = (   0.0000000   0.3464102  -1.0703570), wk =   0.0100000
        k(   29) = (   0.0000000   0.4618802   0.0000000), wk =   0.0100000
        k(   30) = (   0.0000000   0.4618802   0.1783928), wk =   0.0200000
        k(   31) = (   0.0000000   0.4618802   0.3567857), wk =   0.0200000
        k(   32) = (   0.0000000   0.4618802   0.5351785), wk =   0.0200000
        k(   33) = (   0.0000000   0.4618802   0.7135713), wk =   0.0200000
        k(   34) = (   0.0000000   0.4618802   0.8919642), wk =   0.0200000
        k(   35) = (   0.0000000   0.4618802  -1.0703570), wk =   0.0100000
        k(   36) = (   0.0000000  -0.5773503   0.0000000), wk =   0.0050000
        k(   37) = (   0.0000000  -0.5773503   0.1783928), wk =   0.0100000
        k(   38) = (   0.0000000  -0.5773503   0.3567857), wk =   0.0100000
        k(   39) = (   0.0000000  -0.5773503   0.5351785), wk =   0.0100000
        k(   40) = (   0.0000000  -0.5773503   0.7135713), wk =   0.0100000
        k(   41) = (   0.0000000  -0.5773503   0.8919642), wk =   0.0100000
        k(   42) = (   0.0000000  -0.5773503  -1.0703570), wk =   0.0050000
        k(   43) = (   0.1000000   0.1732051   0.0000000), wk =   0.0100000
        k(   44) = (   0.1000000   0.1732051   0.1783928), wk =   0.0200000
        k(   45) = (   0.1000000   0.1732051   0.3567857), wk =   0.0200000
        k(   46) = (   0.1000000   0.1732051   0.5351785), wk =   0.0200000
        k(   47) = (   0.1000000   0.1732051   0.7135713), wk =   0.0200000
        k(   48) = (   0.1000000   0.1732051   0.8919642), wk =   0.0200000
        k(   49) = (   0.1000000   0.1732051  -1.0703570), wk =   0.0100000
        k(   50) = (   0.1000000   0.2886751   0.0000000), wk =   0.0200000
        k(   51) = (   0.1000000   0.2886751   0.1783928), wk =   0.0400000
        k(   52) = (   0.1000000   0.2886751   0.3567857), wk =   0.0400000
        k(   53) = (   0.1000000   0.2886751   0.5351785), wk =   0.0400000
        k(   54) = (   0.1000000   0.2886751   0.7135713), wk =   0.0400000
        k(   55) = (   0.1000000   0.2886751   0.8919642), wk =   0.0400000
        k(   56) = (   0.1000000   0.2886751  -1.0703570), wk =   0.0200000
        k(   57) = (   0.1000000   0.4041452   0.0000000), wk =   0.0200000
        k(   58) = (   0.1000000   0.4041452   0.1783928), wk =   0.0400000
        k(   59) = (   0.1000000   0.4041452   0.3567857), wk =   0.0400000
        k(   60) = (   0.1000000   0.4041452   0.5351785), wk =   0.0400000
        k(   61) = (   0.1000000   0.4041452   0.7135713), wk =   0.0400000
        k(   62) = (   0.1000000   0.4041452   0.8919642), wk =   0.0400000
        k(   63) = (   0.1000000   0.4041452  -1.0703570), wk =   0.0200000
        k(   64) = (   0.1000000   0.5196152   0.0000000), wk =   0.0200000
        k(   65) = (   0.1000000   0.5196152   0.1783928), wk =   0.0400000
        k(   66) = (   0.1000000   0.5196152   0.3567857), wk =   0.0400000
        k(   67) = (   0.1000000   0.5196152   0.5351785), wk =   0.0400000
        k(   68) = (   0.1000000   0.5196152   0.7135713), wk =   0.0400000
        k(   69) = (   0.1000000   0.5196152   0.8919642), wk =   0.0400000
        k(   70) = (   0.1000000   0.5196152  -1.0703570), wk =   0.0200000
        k(   71) = (   0.2000000   0.3464102   0.0000000), wk =   0.0100000
        k(   72) = (   0.2000000   0.3464102   0.1783928), wk =   0.0200000
        k(   73) = (   0.2000000   0.3464102   0.3567857), wk =   0.0200000
        k(   74) = (   0.2000000   0.3464102   0.5351785), wk =   0.0200000
        k(   75) = (   0.2000000   0.3464102   0.7135713), wk =   0.0200000
        k(   76) = (   0.2000000   0.3464102   0.8919642), wk =   0.0200000
        k(   77) = (   0.2000000   0.3464102  -1.0703570), wk =   0.0100000
        k(   78) = (   0.2000000   0.4618802   0.0000000), wk =   0.0200000
        k(   79) = (   0.2000000   0.4618802   0.1783928), wk =   0.0400000
        k(   80) = (   0.2000000   0.4618802   0.3567857), wk =   0.0400000
        k(   81) = (   0.2000000   0.4618802   0.5351785), wk =   0.0400000
        k(   82) = (   0.2000000   0.4618802   0.7135713), wk =   0.0400000
        k(   83) = (   0.2000000   0.4618802   0.8919642), wk =   0.0400000
        k(   84) = (   0.2000000   0.4618802  -1.0703570), wk =   0.0200000
        k(   85) = (   0.2000000   0.5773503   0.0000000), wk =   0.0100000
        k(   86) = (   0.2000000   0.5773503   0.1783928), wk =   0.0200000
        k(   87) = (   0.2000000   0.5773503   0.3567857), wk =   0.0200000
        k(   88) = (   0.2000000   0.5773503   0.5351785), wk =   0.0200000
        k(   89) = (   0.2000000   0.5773503   0.7135713), wk =   0.0200000
        k(   90) = (   0.2000000   0.5773503   0.8919642), wk =   0.0200000
        k(   91) = (   0.2000000   0.5773503  -1.0703570), wk =   0.0100000
        k(   92) = (   0.3000000   0.5196152   0.0000000), wk =   0.0100000
        k(   93) = (   0.3000000   0.5196152   0.1783928), wk =   0.0200000
        k(   94) = (   0.3000000   0.5196152   0.3567857), wk =   0.0200000
        k(   95) = (   0.3000000   0.5196152   0.5351785), wk =   0.0200000
        k(   96) = (   0.3000000   0.5196152   0.7135713), wk =   0.0200000
        k(   97) = (   0.3000000   0.5196152   0.8919642), wk =   0.0200000
        k(   98) = (   0.3000000   0.5196152  -1.0703570), wk =   0.0100000

     Dense  grid:   148217 G-vectors     FFT dimensions: (  90,  90,  45)

     Smooth grid:    80583 G-vectors     FFT dimensions: (  75,  75,  36)

     Estimated max dynamical RAM per process >     263.99 MB

     Estimated total dynamical RAM >     527.98 MB

     Atomic positions and unit cell read from directory:
     ./tmp/Zr6CoTe2.save/


     Check: negative core charge=   -0.000007

     The potential is recalculated from file :
     ./tmp/Zr6CoTe2.save/charge-density


     negative rho (up, down):  3.714E-01 0.000E+00
     Starting wfcs are  102 randomized atomic wfcs

     Band Structure Calculation
     Davidson diagonalization with overlap
     c_bands:  1 eigenvalues not converged
     c_bands:  1 eigenvalues not converged

     ethr =  1.08E-09,  avg # of iterations = 52.6

     total cpu time spent up to now is     2495.0 secs

     End of band structure calculation

          k = 0.0000 0.0000 0.0000 ( 10025 PWs)   bands (ev):

   -34.9586 -34.9498 -34.9498 -34.5146 -34.4836 -34.4836 -13.2817 -13.1641
   -13.1641 -13.0342 -12.9791 -12.9791 -12.9744 -12.9337 -12.9337 -12.6823
   -12.6671 -12.6671 -12.4897 -12.4143 -12.4143 -12.3871 -12.3859 -12.3859
     0.8060   1.4544   8.1743   8.1743   9.4734   9.4734   9.5544  11.0326
    11.0781  11.6141  11.6141  11.9196  11.9196  12.0296  12.1916  12.1951
    12.1951  13.5671  13.5671  14.4853  14.4853  14.5556  14.6328  14.6328
    14.7492  15.0905  15.0905  15.2693  15.2693  15.4430  15.6491  15.8767

          k = 0.0000 0.0000 0.1784 ( 10091 PWs)   bands (ev):

   -34.9575 -34.9491 -34.9491 -34.5143 -34.4830 -34.4830 -13.2762 -13.1631
   -13.1631 -13.0356 -12.9844 -12.9844 -12.9766 -12.9454 -12.9454 -12.6867
   -12.6585 -12.6585 -12.4921 -12.4257 -12.4257 -12.4002 -12.3841 -12.3841
     0.8676   1.4752   8.2506   8.2506   9.4567   9.4567   9.6440  10.8623
    10.9582  11.6219  11.6764  11.6764  11.9300  11.9300  12.2300  12.2300
    12.3531  13.5012  13.5012  14.2898  14.2898  14.5227  14.5764  14.5764
    14.6896  15.0544  15.0544  15.3364  15.5685  15.5685  15.5863  15.9233

          k = 0.0000 0.0000 0.3568 ( 10067 PWs)   bands (ev):

   -34.9546 -34.9472 -34.9472 -34.5134 -34.4813 -34.4813 -13.2609 -13.1608
   -13.1608 -13.0499 -13.0217 -13.0217 -12.9709 -12.9492 -12.9492 -12.7002
   -12.6403 -12.6403 -12.4988 -12.4483 -12.4483 -12.4355 -12.3870 -12.3870
     1.0444   1.5336   8.4634   8.4634   9.4087   9.4087   9.8826  10.2927
    10.3367  11.4930  11.8152  11.8152  11.9434  11.9434  12.3767  12.3767
    12.5275  13.3795  13.3795  13.9359  13.9359  14.1669  14.3370  14.3370
    14.6129  15.0784  15.1981  15.1981  15.5153  15.9389  15.9389  16.1352

          k = 0.0000 0.0000 0.5352 ( 10073 PWs)   bands (ev):

   -34.9507 -34.9446 -34.9446 -34.5121 -34.4791 -34.4791 -13.2394 -13.1585
   -13.1585 -13.0812 -13.0804 -13.0804 -12.9479 -12.9391 -12.9391 -12.7225
   -12.6235 -12.6235 -12.5085 -12.4825 -12.4696 -12.4696 -12.3984 -12.3984
     1.3096   1.6178   8.7537   8.7537   9.2540   9.3597   9.3597   9.7196
    10.3145  11.6984  11.9211  11.9211  11.9278  11.9278  12.6059  12.6643
    12.6643  13.3330  13.3330  13.5898  13.5898  13.7080  14.0954  14.0954
    14.6876  14.7774  15.2518  15.2518  15.4124  16.0210  16.0210  16.6422

          k = 0.0000 0.0000 0.7136 ( 10085 PWs)   bands (ev):

   -34.9467 -34.9420 -34.9420 -34.5108 -34.4769 -34.4769 -13.2172 -13.1589
   -13.1589 -13.1346 -13.1346 -13.1159 -12.9273 -12.9273 -12.9150 -12.7518
   -12.6126 -12.6126 -12.5281 -12.5190 -12.4817 -12.4817 -12.4161 -12.4161
     1.6122   1.7078   8.3636   8.9537   8.9537   9.1762   9.4429   9.4429
    10.7584  11.8076  11.8076  11.9771  11.9884  11.9884  12.5442  12.9612
    12.9612  13.2328  13.2328  13.2763  13.6098  13.6098  13.9269  13.9269
    14.5154  14.7731  14.9581  14.9581  15.5811  16.1891  16.1891  16.7538

          k = 0.0000 0.0000 0.8920 ( 10067 PWs)   bands (ev):

   -34.9438 -34.9401 -34.9401 -34.5099 -34.4752 -34.4752 -13.2003 -13.1786
   -13.1786 -13.1537 -13.1536 -13.1418 -12.9188 -12.9188 -12.8806 -12.7832
   -12.6070 -12.6070 -12.5608 -12.5272 -12.4830 -12.4830 -12.4349 -12.4349
     1.7780   1.8677   7.7355   8.8101   8.9648   8.9648   9.6956   9.6956
    11.1486  11.6193  11.6194  12.0380  12.0380  12.2669  12.4522  12.9060
    12.9749  12.9749  13.3074  13.3074  13.7545  13.7545  13.9809  13.9809
    14.3416  14.5720  14.5720  14.5824  16.2308  16.3082  16.3082  16.5258

          k = 0.0000 0.0000-1.0704 ( 10072 PWs)   bands (ev):

   -34.9427 -34.9394 -34.9394 -34.5096 -34.4746 -34.4746 -13.1940 -13.1917
   -13.1917 -13.1546 -13.1546 -13.1513 -12.9157 -12.9157 -12.8608 -12.8018
   -12.6052 -12.6052 -12.5727 -12.5303 -12.4804 -12.4804 -12.4445 -12.4445
     1.8047   1.9710   7.5055   8.6812   8.9509   8.9509   9.8293   9.8293
    11.3117  11.5185  11.5185  12.0621  12.0621  12.4141  12.5715  12.5731
    12.9256  12.9256  13.4062  13.4062  13.7396  13.7396  14.1494  14.1494
    14.2811  14.3586  14.3586  14.4776  16.3272  16.3272  16.4471  16.6987

          k = 0.0000 0.1155 0.0000 ( 10077 PWs)   bands (ev):

   -34.9583 -34.9499 -34.9499 -34.5150 -34.4835 -34.4833 -13.2788 -13.1675
   -13.1663 -13.0389 -12.9797 -12.9733 -12.9673 -12.9344 -12.9342 -12.7201
   -12.6635 -12.6290 -12.4908 -12.4202 -12.4151 -12.3924 -12.3855 -12.3811
     0.8207   1.4398   8.1469   8.1874   9.2227   9.4758   9.8171  11.0441
    11.0977  11.6093  11.6491  11.9423  11.9531  12.0616  12.0942  12.1950
    12.2662  13.4570  13.4823  14.3969  14.4805  14.5797  14.6939  14.6956
    14.7950  15.0865  15.2079  15.2516  15.2754  15.4565  15.6162  15.8090

          k = 0.0000 0.1155 0.1784 ( 10072 PWs)   bands (ev):

   -34.9573 -34.9492 -34.9492 -34.5146 -34.4829 -34.4827 -13.2734 -13.1663
   -13.1651 -13.0370 -12.9887 -12.9847 -12.9669 -12.9460 -12.9426 -12.7168
   -12.6553 -12.6280 -12.4931 -12.4320 -12.4259 -12.3984 -12.3853 -12.3843
     0.8816   1.4616   8.2242   8.2616   9.2471   9.4605   9.8654  10.8771
    10.9713  11.6052  11.6750  11.7114  11.9467  11.9589  12.2122  12.2346
    12.3938  13.4309  13.4354  14.2392  14.2988  14.5071  14.5736  14.5865
    14.6701  15.0799  15.2305  15.3520  15.5457  15.5553  15.5868  15.8627

          k = 0.0000 0.1155 0.3568 ( 10077 PWs)   bands (ev):

   -34.9544 -34.9473 -34.9472 -34.5136 -34.4813 -34.4812 -13.2585 -13.1635
   -13.1622 -13.0469 -13.0215 -13.0212 -12.9807 -12.9496 -12.9382 -12.7160
   -12.6383 -12.6242 -12.4996 -12.4569 -12.4477 -12.4284 -12.3893 -12.3880
     1.0560   1.5229   8.4400   8.4682   9.2756   9.4150  10.0268  10.2996
    10.3447  11.4898  11.8105  11.8437  11.9509  11.9591  12.3692  12.3911
    12.5809  13.3231  13.3337  13.9300  13.9573  14.1567  14.2658  14.3100
    14.6353  15.0842  15.2429  15.3276  15.4916  15.8894  15.9168  16.1216

          k = 0.0000 0.1155 0.5352 ( 10095 PWs)   bands (ev):

   -34.9505 -34.9447 -34.9446 -34.5123 -34.4791 -34.4790 -13.2377 -13.1608
   -13.1592 -13.0879 -13.0799 -13.0696 -12.9609 -12.9390 -12.9287 -12.7277
   -12.6231 -12.6185 -12.5089 -12.4892 -12.4683 -12.4616 -12.4003 -12.3999
     1.3175   1.6112   8.7301   8.7499   9.1910   9.3534   9.3805   9.7352
    10.3807  11.6996  11.9150  11.9308  11.9357  11.9450  12.6386  12.6682
    12.6842  13.2582  13.2763  13.6166  13.6293  13.7530  14.0330  14.0620
    14.6784  14.7753  15.2959  15.3334  15.4367  15.9922  16.0162  16.5885

          k = 0.0000 0.1155 0.7136 ( 10091 PWs)   bands (ev):

   -34.9466 -34.9421 -34.9420 -34.5109 -34.4768 -34.4768 -13.2165 -13.1608
   -13.1588 -13.1377 -13.1338 -13.1090 -12.9328 -12.9266 -12.9143 -12.7516
   -12.6140 -12.6138 -12.5282 -12.5190 -12.4799 -12.4773 -12.4181 -12.4172
     1.6154   1.7057   8.3657   8.9408   8.9588   9.1328   9.4140   9.4870
    10.7832  11.8236  11.8303  11.9719  11.9871  11.9971  12.5560  12.8967
    12.9737  13.1838  13.2071  13.3693  13.6181  13.6284  13.8910  13.9173
    14.5022  14.6540  15.0417  15.1505  15.5807  16.1803  16.1857  16.6892

          k = 0.0000 0.1155 0.8920 ( 10059 PWs)   bands (ev):

   -34.9437 -34.9402 -34.9401 -34.5099 -34.4752 -34.4752 -13.2008 -13.1813
   -13.1781 -13.1547 -13.1520 -13.1365 -12.9246 -12.9174 -12.8803 -12.7823
   -12.6111 -12.6094 -12.5581 -12.5269 -12.4810 -12.4787 -12.4369 -12.4356
     1.7793   1.8663   7.7503   8.7693   8.9632   8.9853   9.6743   9.6969
    11.1332  11.6533  11.6585  12.0301  12.0381  12.2730  12.4433  12.8405
    12.9743  13.0143  13.2628  13.3556  13.6855  13.7080  13.9942  14.0168
    14.3273  14.4072  14.7018  14.8450  16.2089  16.3038  16.3205  16.5213

          k = 0.0000 0.1155-1.0704 ( 10058 PWs)   bands (ev):

   -34.9426 -34.9395 -34.9394 -34.5096 -34.4746 -34.4746 -13.1946 -13.1943
   -13.1916 -13.1555 -13.1523 -13.1465 -12.9235 -12.9140 -12.8565 -12.8035
   -12.6101 -12.6080 -12.5691 -12.5299 -12.4783 -12.4758 -12.4466 -12.4453
     1.8073   1.9677   7.5238   8.6433   8.9509   8.9731   9.8089   9.8176
    11.2671  11.5602  11.5773  12.0525  12.0626  12.4038  12.5564  12.5821
    12.9235  12.9465  13.3533  13.4107  13.6408  13.6836  14.1578  14.1745
    14.2673  14.2933  14.5227  14.6829  16.3237  16.3624  16.4400  16.6591

          k = 0.0000 0.2309 0.0000 ( 10075 PWs)   bands (ev):

   -34.9576 -34.9504 -34.9501 -34.5158 -34.4833 -34.4827 -13.2705 -13.1765
   -13.1721 -13.0438 -12.9823 -12.9700 -12.9441 -12.9366 -12.9354 -12.7592
   -12.6524 -12.5885 -12.4936 -12.4366 -12.4180 -12.3980 -12.3842 -12.3768
     0.8627   1.3984   8.0775   8.1997   9.0228   9.4807  10.0700  11.0728
    11.1541  11.5949  11.7183  11.9819  11.9873  12.0690  12.1653  12.1955
    12.3002  13.2417  13.2898  14.2589  14.4809  14.6124  14.7755  14.8174
    14.9065  15.0835  15.1592  15.3124  15.3946  15.4895  15.5646  15.6735

          k = 0.0000 0.2309 0.1784 ( 10092 PWs)   bands (ev):

   -34.9566 -34.9497 -34.9494 -34.5154 -34.4827 -34.4822 -13.2655 -13.1749
   -13.1704 -13.0380 -12.9887 -12.9863 -12.9600 -12.9481 -12.9304 -12.7524
   -12.6457 -12.5908 -12.4957 -12.4468 -12.4270 -12.3988 -12.3857 -12.3849
     0.9213   1.4230   8.1577   8.2673   9.0525   9.4688  10.1139  10.9179
    11.0074  11.5528  11.6737  11.7874  11.9748  12.0417  12.2087  12.2608
    12.4677  13.2614  13.3139  14.0861  14.3012  14.4090  14.5913  14.6846
    14.7646  15.1087  15.3921  15.4552  15.4978  15.5241  15.5990  15.7484

          k = 0.0000 0.2309 0.3568 ( 10076 PWs)   bands (ev):

   -34.9538 -34.9477 -34.9474 -34.5142 -34.4811 -34.4807 -13.2518 -13.1710
   -13.1660 -13.0393 -13.0214 -13.0190 -12.9938 -12.9513 -12.9228 -12.7419
   -12.6325 -12.5973 -12.5015 -12.4689 -12.4464 -12.4198 -12.3954 -12.3910
     1.0889   1.4925   8.3822   8.4533   9.1109   9.4292  10.2459  10.3154
    10.3703  11.4780  11.8057  11.9064  11.9629  12.0008  12.3649  12.4432
    12.6921  13.1900  13.2755  13.8209  13.9623  14.0515  14.2542  14.3433
    14.6864  15.1053  15.3512  15.4275  15.5272  15.7998  15.8701  16.0977

          k = 0.0000 0.2309 0.5352 ( 10084 PWs)   bands (ev):

   -34.9500 -34.9450 -34.9448 -34.5127 -34.4790 -34.4787 -13.2330 -13.1667
   -13.1610 -13.0900 -13.0788 -13.0570 -12.9753 -12.9390 -12.9201 -12.7403
   -12.6222 -12.6070 -12.5100 -12.4948 -12.4651 -12.4508 -12.4063 -12.4037
     1.3397   1.5926   8.6624   8.7206   9.0922   9.3397   9.4407   9.7667
    10.5152  11.6974  11.8989  11.9475  11.9724  11.9905  12.6149  12.7267
    12.7935  13.1143  13.1859  13.6222  13.6722  13.7775  13.9840  14.0282
    14.6461  14.8184  15.3170  15.4324  15.6019  15.9159  15.9958  16.4091

          k = 0.0000 0.2309 0.7136 ( 10069 PWs)   bands (ev):

   -34.9462 -34.9423 -34.9421 -34.5111 -34.4768 -34.4767 -13.2146 -13.1652
   -13.1593 -13.1392 -13.1326 -13.0980 -12.9423 -12.9258 -12.9142 -12.7536
   -12.6177 -12.6162 -12.5245 -12.5190 -12.4758 -12.4677 -12.4240 -12.4199
     1.6241   1.6998   8.3727   8.8555   8.9837   9.0968   9.3567   9.5565
    10.8335  11.8630  11.8932  11.9529  11.9878  12.0270  12.5676  12.8054
    13.0110  13.0948  13.1665  13.4728  13.6109  13.6591  13.8007  13.9317
    14.5250  14.5991  15.1878  15.4179  15.5977  16.1287  16.1824  16.5270

          k = 0.0000 0.2309 0.8920 ( 10071 PWs)   bands (ev):

   -34.9435 -34.9404 -34.9401 -34.5100 -34.4752 -34.4752 -13.2017 -13.1847
   -13.1773 -13.1568 -13.1480 -13.1271 -12.9377 -12.9138 -12.8795 -12.7813
   -12.6228 -12.6146 -12.5493 -12.5260 -12.4768 -12.4686 -12.4426 -12.4371
     1.7834   1.8623   7.7938   8.6605   8.9649   9.0427   9.6167   9.6913
    11.0957  11.7419  11.7641  12.0070  12.0395  12.2878  12.4150  12.7743
    12.9663  13.0534  13.1670  13.4115  13.5827  13.6720  13.9018  13.9558
    14.4399  14.4963  14.9305  15.1293  16.1675  16.2646  16.3384  16.5138

          k = 0.0000 0.2309-1.0704 ( 10086 PWs)   bands (ev):

   -34.9424 -34.9397 -34.9394 -34.5095 -34.4746 -34.4746 -13.1980 -13.1952
   -13.1912 -13.1578 -13.1469 -13.1376 -12.9397 -12.9092 -12.8495 -12.8064
   -12.6247 -12.6134 -12.5588 -12.5287 -12.4738 -12.4640 -12.4528 -12.4474
     1.8153   1.9580   7.5774   8.5405   8.9557   9.0366   9.7503   9.7804
    11.1873  11.6710  11.7037  12.0248  12.0661  12.3734  12.5186  12.6177
    12.9153  12.9899  13.2291  13.4247  13.4806  13.6408  13.9662  14.0101
    14.4777  14.5742  14.7709  14.9535  16.3079  16.3648  16.4619  16.5772

          k = 0.0000 0.3464 0.0000 ( 10067 PWs)   bands (ev):

   -34.9565 -34.9512 -34.9503 -34.5168 -34.4831 -34.4820 -13.2582 -13.1889
   -13.1795 -13.0418 -12.9885 -12.9650 -12.9404 -12.9367 -12.9233 -12.7873
   -12.6338 -12.5583 -12.4972 -12.4582 -12.4232 -12.4026 -12.3825 -12.3737
     0.9251   1.3369   7.9941   8.1644   8.9681   9.4889  10.2334  11.1101
    11.2393  11.5827  11.7593  11.8658  12.0415  12.1991  12.2421  12.2943
    12.3286  13.0454  13.0869  14.1687  14.4929  14.5953  14.8097  14.9304
    15.0019  15.0223  15.1245  15.2896  15.4590  15.4665  15.5783  15.5959

          k = 0.0000 0.3464 0.1784 ( 10086 PWs)   bands (ev):

   -34.9555 -34.9504 -34.9496 -34.5163 -34.4825 -34.4815 -13.2538 -13.1868
   -13.1771 -13.0348 -12.9908 -12.9841 -12.9595 -12.9521 -12.9155 -12.7783
   -12.6299 -12.5627 -12.4990 -12.4640 -12.4300 -12.4033 -12.3857 -12.3834
     0.9802   1.3658   8.0779   8.2226   8.9995   9.4802  10.2789  10.9704
    11.0673  11.4716  11.6736  11.8509  12.0001  12.1154  12.2256  12.3557
    12.5449  13.0679  13.2151  13.9571  14.2706  14.3754  14.5899  14.7620
    14.8796  15.0971  15.3624  15.4652  15.4806  15.5092  15.5957  15.8081

          k = 0.0000 0.3464 0.3568 ( 10097 PWs)   bands (ev):

   -34.9529 -34.9484 -34.9476 -34.5150 -34.4809 -34.4802 -13.2420 -13.1813
   -13.1708 -13.0313 -13.0220 -13.0129 -13.0023 -12.9554 -12.9122 -12.7630
   -12.6237 -12.5757 -12.5040 -12.4767 -12.4457 -12.4141 -12.4031 -12.3950
     1.1376   1.4472   8.3148   8.3786   9.0678   9.4453  10.3249  10.3780
    10.4480  11.4590  11.8121  11.9444  11.9927  12.0412  12.3639  12.5401
    12.7683  13.0422  13.3310  13.5822  13.9246  14.0691  14.2091  14.4386
    14.7271  15.1275  15.3410  15.5019  15.5679  15.7083  15.8047  16.0787

          k = 0.0000 0.3464 0.5352 ( 10084 PWs)   bands (ev):

   -34.9493 -34.9456 -34.9449 -34.5132 -34.4788 -34.4783 -13.2263 -13.1748
   -13.1630 -13.0884 -13.0778 -13.0492 -12.9807 -12.9396 -12.9173 -12.7552
   -12.6216 -12.5956 -12.5113 -12.4919 -12.4615 -12.4424 -12.4166 -12.4084
     1.3721   1.5648   8.5574   8.6652   9.0523   9.3355   9.5241   9.7901
    10.6350  11.6886  11.8886  11.9660  12.0174  12.0498  12.5879  12.7712
    12.8842  12.9969  13.1576  13.5299  13.6269  13.8288  13.9381  14.1605
    14.6117  14.8816  15.3147  15.4764  15.7230  15.8099  15.9847  16.2711

          k = 0.0000 0.3464 0.7136 ( 10080 PWs)   bands (ev):

   -34.9457 -34.9428 -34.9422 -34.5113 -34.4767 -34.4765 -13.2118 -13.1703
   -13.1589 -13.1377 -13.1313 -13.0913 -12.9482 -12.9280 -12.9113 -12.7614
   -12.6216 -12.6185 -12.5190 -12.5135 -12.4717 -12.4580 -12.4338 -12.4233
     1.6362   1.6911   8.3893   8.7181   9.0178   9.0958   9.3185   9.6046
    10.8750  11.8944  11.9315  11.9817  12.0064  12.0655  12.5482  12.7513
    12.9820  13.0878  13.1454  13.4656  13.5104  13.6793  13.7630  14.0456
    14.5544  14.6996  15.2929  15.5530  15.6958  16.0230  16.2102  16.3420

          k = 0.0000 0.3464 0.8920 ( 10068 PWs)   bands (ev):

   -34.9431 -34.9407 -34.9401 -34.5100 -34.4752 -34.4752 -13.2023 -13.1841
   -13.1769 -13.1597 -13.1432 -13.1209 -12.9513 -12.9100 -12.8758 -12.7831
   -12.6380 -12.6194 -12.5350 -12.5250 -12.4729 -12.4605 -12.4489 -12.4387
     1.7900   1.8556   7.8631   8.5155   8.9770   9.1282   9.5367   9.6663
    11.0533  11.8592  11.9022  11.9746  12.0436  12.2983  12.3759  12.7520
    12.9326  13.0368  13.1457  13.3668  13.4930  13.6943  13.7898  13.8708
    14.5843  14.7517  15.1576  15.3815  16.0698  16.2084  16.3168  16.5633

          k = 0.0000 0.3464-1.0704 ( 10076 PWs)   bands (ev):

   -34.9421 -34.9400 -34.9394 -34.5095 -34.4747 -34.4746 -13.1996 -13.1947
   -13.1899 -13.1612 -13.1410 -13.1316 -12.9561 -12.9026 -12.8455 -12.8062
   -12.6452 -12.6182 -12.5436 -12.5272 -12.4693 -12.4629 -12.4505 -12.4498
     1.8279   1.9431   7.6609   8.3996   8.9730   9.1304   9.6641   9.7179
    11.1127  11.8160  11.8604  11.9865  12.0739  12.3339  12.4710  12.6715
    12.8951  13.0062  13.1215  13.3464  13.4475  13.6723  13.7836  13.8616
    14.6680  14.8640  15.0527  15.2311  16.1339  16.2709  16.5650  16.6018

          k = 0.0000 0.4619 0.0000 ( 10090 PWs)   bands (ev):

   -34.9552 -34.9522 -34.9505 -34.5176 -34.4829 -34.4814 -13.2441 -13.2026
   -13.1854 -13.0335 -12.9989 -12.9589 -12.9456 -12.9377 -12.9120 -12.8013
   -12.6094 -12.5494 -12.5000 -12.4722 -12.4299 -12.4056 -12.3811 -12.3720
     0.9937   1.2694   7.9260   8.1058   9.0075   9.5057  10.2917  11.1457
    11.3336  11.5935  11.7589  11.7590  12.1041  12.2100  12.2643  12.3698
    12.4990  12.8869  12.9706  14.1321  14.5031  14.5490  14.7107  14.9151
    15.0802  15.1036  15.2172  15.2417  15.3812  15.4015  15.5436  15.6264

          k = 0.0000 0.4619 0.1784 ( 10094 PWs)   bands (ev):

   -34.9543 -34.9514 -34.9498 -34.5171 -34.4823 -34.4810 -13.2406 -13.1997
   -13.1825 -13.0274 -12.9980 -12.9770 -12.9619 -12.9566 -12.9074 -12.7912
   -12.6101 -12.5535 -12.5016 -12.4737 -12.4351 -12.4072 -12.3862 -12.3815
     1.0448   1.3028   8.0119   8.1581   9.0370   9.4977  10.3429  11.0126
    11.1564  11.3736  11.6780  11.8877  12.0281  12.1372  12.2400  12.4686
    12.6143  12.9478  13.1143  13.9363  14.2258  14.3690  14.5844  14.7373
    14.9670  15.1246  15.2940  15.4189  15.4303  15.4732  15.6030  15.7999

          k = 0.0000 0.4619 0.3568 ( 10103 PWs)   bands (ev):

   -34.9518 -34.9492 -34.9478 -34.5156 -34.4808 -34.4798 -13.2312 -13.1922
   -13.1747 -13.0267 -13.0233 -13.0129 -12.9944 -12.9633 -12.9083 -12.7750
   -12.6146 -12.5659 -12.5060 -12.4762 -12.4474 -12.4149 -12.4062 -12.3986
     1.1906   1.3971   8.2560   8.2976   9.1007   9.4604  10.3232  10.4252
    10.5369  11.4407  11.8335  11.9356  12.0438  12.0599  12.3689  12.6214
    12.7698  12.9779  13.3216  13.5367  13.8741  14.0913  14.2005  14.4669
    14.7476  15.1142  15.2906  15.5182  15.5586  15.6509  15.8068  16.1258

          k = 0.0000 0.4619 0.5352 ( 10097 PWs)   bands (ev):

   -34.9485 -34.9463 -34.9450 -34.5135 -34.4788 -34.4781 -13.2194 -13.1826
   -13.1643 -13.0853 -13.0774 -13.0493 -12.9746 -12.9414 -12.9193 -12.7672
   -12.6214 -12.5885 -12.5123 -12.4806 -12.4599 -12.4370 -12.4290 -12.4124
     1.4069   1.5338   8.4608   8.6216   9.0483   9.3406   9.6046   9.7960
    10.7074  11.6792  11.8881  11.9758  12.0450  12.1114  12.5902  12.7489
    12.8320  12.9763  13.2257  13.4406  13.5789  13.8982  13.9308  14.2965
    14.5859  14.9091  15.2894  15.4602  15.6209  15.8982  16.0090  16.2399

          k = 0.0000 0.4619 0.7136 ( 10082 PWs)   bands (ev):

   -34.9451 -34.9433 -34.9422 -34.5115 -34.4767 -34.4764 -13.2092 -13.1748
   -13.1562 -13.1379 -13.1289 -13.0903 -12.9494 -12.9312 -12.9061 -12.7722
   -12.6241 -12.6197 -12.5190 -12.4976 -12.4695 -12.4536 -12.4432 -12.4266
     1.6487   1.6815   8.4244   8.5880   9.0254   9.1178   9.3095   9.6262
    10.8972  11.8907  11.9285  12.0367  12.0636  12.1005  12.5143  12.7480
    12.8927  13.0820  13.2037  13.3537  13.4435  13.7015  13.7609  14.1755
    14.5845  14.8678  15.3412  15.5190  15.7086  16.0841  16.1470  16.2746

          k = 0.0000 0.4619 0.8920 ( 10067 PWs)   bands (ev):

   -34.9427 -34.9411 -34.9402 -34.5100 -34.4752 -34.4752 -13.2026 -13.1803
   -13.1766 -13.1630 -13.1395 -13.1196 -12.9611 -12.9077 -12.8684 -12.7877
   -12.6506 -12.6225 -12.5242 -12.5185 -12.4709 -12.4682 -12.4451 -12.4392
     1.7976   1.8481   7.9469   8.3739   8.9961   9.2266   9.4488   9.6288
    11.0211  11.9409  11.9711  12.0264  12.0548  12.2921  12.3449  12.7579
    12.8587  12.9953  13.2123  13.3071  13.4129  13.6594  13.6888  13.9177
    14.6932  15.0115  15.3305  15.5368  15.8888  16.1726  16.3697  16.6021

          k = 0.0000 0.4619-1.0704 ( 10038 PWs)   bands (ev):

   -34.9418 -34.9403 -34.9394 -34.5095 -34.4747 -34.4746 -13.1997 -13.1932
   -13.1877 -13.1644 -13.1367 -13.1303 -12.9678 -12.8962 -12.8449 -12.8017
   -12.6645 -12.6212 -12.5270 -12.5261 -12.4755 -12.4663 -12.4516 -12.4403
     1.8423   1.9268   7.7577   8.2588   8.9996   9.2318   9.5765   9.6450
    11.0609  11.9526  11.9558  12.0053  12.0830  12.3020  12.4168  12.7199
    12.8421  12.9480  13.1415  13.2596  13.4665  13.6438  13.7428  13.7458
    14.7805  15.0990  15.3232  15.4677  15.8832  16.2284  16.6043  16.6832

          k = 0.0000-0.5774 0.0000 ( 10114 PWs)   bands (ev):

   -34.9542 -34.9531 -34.9506 -34.5179 -34.4828 -34.4812 -13.2354 -13.2111
   -13.1876 -13.0260 -13.0072 -12.9536 -12.9505 -12.9381 -12.9090 -12.8047
   -12.5920 -12.5578 -12.5010 -12.4734 -12.4337 -12.4067 -12.3806 -12.3714
     1.0310   1.2325   7.8994   8.0802   9.0347   9.5179  10.2952  11.1609
    11.3843  11.6106  11.7054  11.7472  12.1393  12.2300  12.2340  12.3972
    12.5909  12.8023  12.9518  14.1249  14.5055  14.5607  14.5917  14.9218
    15.1486  15.1914  15.1945  15.2623  15.3175  15.3759  15.5229  15.6130

          k = 0.0000-0.5774 0.1784 ( 10090 PWs)   bands (ev):

   -34.9534 -34.9523 -34.9499 -34.5174 -34.4822 -34.4808 -13.2325 -13.2076
   -13.1845 -13.0217 -13.0035 -12.9700 -12.9677 -12.9579 -12.9054 -12.7945
   -12.5975 -12.5578 -12.5025 -12.4740 -12.4384 -12.4086 -12.3864 -12.3808
     1.0800   1.2684   7.9857   8.1311   9.0626   9.5091  10.3502  11.0288
    11.2509  11.2788  11.6820  11.9011  12.0437  12.1398  12.2454  12.4985
    12.6407  12.9831  13.0066  13.9573  14.2075  14.3640  14.5850  14.6950
    14.9867  15.1986  15.2405  15.4099  15.4133  15.4438  15.6112  15.6972

          k = 0.0000-0.5774 0.3568 ( 10116 PWs)   bands (ev):

   -34.9511 -34.9499 -34.9478 -34.5158 -34.4807 -34.4796 -13.2251 -13.1981
   -13.1761 -13.0254 -13.0236 -13.0148 -12.9829 -12.9721 -12.9078 -12.7785
   -12.6103 -12.5646 -12.5067 -12.4728 -12.4498 -12.4171 -12.4057 -12.4001
     1.2194   1.3695   8.2275   8.2708   9.1221   9.4678  10.3202  10.4433
    10.5648  11.4330  11.8508  11.9241  12.0583  12.0715  12.3755  12.6394
    12.7420  13.0246  13.2144  13.6104  13.8531  14.0952  14.2248  14.4392
    14.7560  15.0946  15.2643  15.4995  15.5835  15.6018  15.9039  16.0792

          k = 0.0000-0.5774 0.5352 ( 10094 PWs)   bands (ev):

   -34.9479 -34.9468 -34.9451 -34.5137 -34.4787 -34.4780 -13.2160 -13.1863
   -13.1647 -13.0836 -13.0772 -13.0509 -12.9687 -12.9430 -12.9214 -12.7718
   -12.6214 -12.5863 -12.5127 -12.4704 -12.4624 -12.4359 -12.4350 -12.4140
     1.4258   1.5164   8.4233   8.6059   9.0492   9.3442   9.6414   9.7931
    10.7303  11.6753  11.8904  11.9767  12.0534  12.1400  12.6098  12.7210
    12.7784  12.9817  13.3054  13.3543  13.5786  13.9155  13.9522  14.3551
    14.5741  14.9115  15.2508  15.4228  15.6586  15.8326  16.2011  16.2137

          k = 0.0000-0.5774 0.7136 ( 10078 PWs)   bands (ev):

   -34.9448 -34.9436 -34.9423 -34.5116 -34.4767 -34.4763 -13.2080 -13.1767
   -13.1542 -13.1388 -13.1275 -13.0911 -12.9493 -12.9323 -12.9034 -12.7775
   -12.6250 -12.6200 -12.5190 -12.4868 -12.4701 -12.4585 -12.4432 -12.4282
     1.6558   1.6754   8.4834   8.4938   9.0214   9.1335   9.3098   9.6311
    10.9036  11.8845  11.9290  12.0504  12.0984  12.1160  12.4984  12.8003
    12.8021  13.0830  13.2597  13.2694  13.4215  13.7170  13.7592  14.2266
    14.5968  14.9797  15.3552  15.4179  15.7450  16.0198  16.1803  16.3128

          k = 0.0000-0.5774 0.8920 ( 10068 PWs)   bands (ev):

   -34.9424 -34.9413 -34.9402 -34.5100 -34.4752 -34.4751 -13.2026 -13.1774
   -13.1768 -13.1649 -13.1381 -13.1201 -12.9646 -12.9070 -12.8641 -12.7907
   -12.6554 -12.6235 -12.5239 -12.5089 -12.4765 -12.4696 -12.4430 -12.4387
     1.8014   1.8442   7.9968   8.3026   9.0061   9.2951   9.3865   9.6091
    11.0093  11.9310  12.0079  12.0752  12.0761  12.2821  12.3334  12.7684
    12.8105  12.9868  13.2498  13.2816  13.3804  13.6374  13.6443  13.9542
    14.7298  15.1470  15.4168  15.5222  15.8374  16.1490  16.4362  16.5272

          k = 0.0000-0.5774-1.0704 ( 10048 PWs)   bands (ev):

   -34.9416 -34.9405 -34.9394 -34.5095 -34.4747 -34.4746 -13.1995 -13.1924
   -13.1864 -13.1659 -13.1351 -13.1307 -12.9720 -12.8935 -12.8452 -12.7987
   -12.6728 -12.6222 -12.5256 -12.5176 -12.4834 -12.4652 -12.4523 -12.4366
     1.8499   1.9185   7.8120   8.1882   9.0141   9.2859   9.5330   9.6071
    11.0423  11.9389  12.0266  12.0647  12.0870  12.2900  12.3862  12.7393
    12.7972  12.9303  13.1717  13.2292  13.4586  13.6039  13.6899  13.7861
    14.8104  15.2041  15.4683  15.5526  15.7673  16.2330  16.5479  16.6283

          k = 0.1000 0.1732 0.0000 ( 10090 PWs)   bands (ev):

   -34.9578 -34.9502 -34.9500 -34.5156 -34.4833 -34.4829 -13.2732 -13.1739
   -13.1700 -13.0430 -12.9809 -12.9711 -12.9511 -12.9356 -12.9352 -12.7490
   -12.6567 -12.5985 -12.4928 -12.4314 -12.4170 -12.3966 -12.3845 -12.3779
     0.8491   1.4118   8.0836   8.2185   9.0527   9.4897  10.0055  11.0635
    11.1358  11.6108  11.6879  11.9843  12.0125  12.0217  12.1300  12.1952
    12.2953  13.2988  13.3487  14.2992  14.4696  14.6047  14.7626  14.7806
    14.8864  15.0656  15.1934  15.2978  15.3532  15.4897  15.5607  15.7297

          k = 0.1000 0.1732 0.1784 ( 10097 PWs)   bands (ev):

   -34.9568 -34.9495 -34.9493 -34.5152 -34.4828 -34.4824 -13.2681 -13.1724
   -13.1685 -13.0380 -12.9893 -12.9854 -12.9613 -12.9471 -12.9349 -12.7432
   -12.6493 -12.6000 -12.4949 -12.4424 -12.4265 -12.3982 -12.3860 -12.3847
     0.9084   1.4355   8.1623   8.2891   9.0811   9.4763  10.0506  10.9056
    10.9948  11.5717  11.6849  11.7498  11.9845  12.0046  12.2056  12.2497
    12.4466  13.3219  13.3373  14.1311  14.3054  14.4274  14.5758  14.6567
    14.7439  15.1071  15.3912  15.3964  15.5109  15.5209  15.5994  15.7772

          k = 0.1000 0.1732 0.3568 ( 10075 PWs)   bands (ev):

   -34.9540 -34.9475 -34.9474 -34.5140 -34.4812 -34.4809 -13.2540 -13.1687
   -13.1648 -13.0416 -13.0212 -13.0200 -12.9907 -12.9504 -12.9269 -12.7351
   -12.6343 -12.6045 -12.5009 -12.4659 -12.4467 -12.4219 -12.3935 -12.3901
     1.0783   1.5024   8.3818   8.4844   9.1333   9.4346  10.1891  10.3132
    10.3588  11.4816  11.8113  11.8804  11.9751  11.9772  12.3641  12.4257
    12.6604  13.2554  13.2584  13.8780  13.9872  14.0412  14.2510  14.3199
    14.6868  15.0947  15.3181  15.4293  15.5016  15.8039  15.9173  16.0822

          k = 0.1000 0.1732 0.5352 ( 10079 PWs)   bands (ev):

   -34.9502 -34.9449 -34.9447 -34.5125 -34.4790 -34.4788 -13.2345 -13.1650
   -13.1603 -13.0899 -13.0790 -13.0603 -12.9720 -12.9388 -12.9219 -12.7366
   -12.6220 -12.6107 -12.5096 -12.4941 -12.4659 -12.4536 -12.4037 -12.4032
     1.3326   1.5987   8.6741   8.7462   9.1035   9.3617   9.4108   9.7587
    10.4771  11.6977  11.9088  11.9355  11.9627  11.9767  12.6218  12.7183
    12.7523  13.1529  13.2068  13.6448  13.6743  13.7587  13.9909  14.0179
    14.6745  14.7843  15.3495  15.3765  15.5545  15.9407  16.0045  16.4726

          k = 0.1000 0.1732 0.7136 ( 10066 PWs)   bands (ev):

   -34.9463 -34.9422 -34.9421 -34.5110 -34.4768 -34.4767 -13.2152 -13.1648
   -13.1579 -13.1400 -13.1325 -13.1009 -12.9402 -12.9249 -12.9148 -12.7526
   -12.6161 -12.6160 -12.5261 -12.5190 -12.4765 -12.4708 -12.4217 -12.4194
     1.6213   1.7017   8.3701   8.9141   8.9355   9.1130   9.3738   9.5382
    10.8193  11.8541  11.8689  11.9611  11.9874  12.0154  12.5658  12.8356
    12.9900  13.1284  13.1697  13.4566  13.6295  13.6398  13.8193  13.9232
    14.5263  14.5865  15.1598  15.3411  15.5909  16.1535  16.1775  16.5767

          k = 0.1000 0.1732 0.8920 ( 10059 PWs)   bands (ev):

   -34.9435 -34.9403 -34.9401 -34.5100 -34.4752 -34.4752 -13.2013 -13.1846
   -13.1770 -13.1565 -13.1490 -13.1295 -12.9342 -12.9144 -12.8801 -12.7814
   -12.6180 -12.6144 -12.5523 -12.5263 -12.4772 -12.4722 -12.4407 -12.4368
     1.7821   1.8636   7.7794   8.6955   8.9600   9.0268   9.6346   9.6950
    11.1065  11.7192  11.7260  12.0181  12.0352  12.2813  12.4264  12.7905
    12.9722  13.0420  13.1931  13.4100  13.5826  13.6920  13.9513  13.9660
    14.4051  14.4450  14.8660  15.0543  16.1792  16.2867  16.3323  16.5117

          k = 0.1000 0.1732-1.0704 ( 10060 PWs)   bands (ev):

   -34.9425 -34.9396 -34.9394 -34.5096 -34.4746 -34.4746 -13.1970 -13.1951
   -13.1915 -13.1572 -13.1484 -13.1400 -12.9353 -12.9105 -12.8513 -12.8058
   -12.6180 -12.6140 -12.5621 -12.5290 -12.4743 -12.4682 -12.4506 -12.4469
     1.8127   1.9611   7.5598   8.5730   8.9535   9.0163   9.7679   9.7941
    11.2087  11.6384  11.6641  12.0372  12.0610  12.3795  12.5305  12.6114
    12.9195  12.9767  13.2670  13.4177  13.5199  13.6451  14.0207  14.0495
    14.4290  14.4862  14.6998  14.8799  16.3144  16.4096  16.4284  16.5909

          k = 0.1000 0.2887 0.0000 ( 10084 PWs)   bands (ev):

   -34.9569 -34.9508 -34.9503 -34.5165 -34.4831 -34.4823 -13.2629 -13.1846
   -13.1765 -13.0431 -12.9842 -12.9669 -12.9384 -12.9367 -12.9333 -12.7757
   -12.6432 -12.5669 -12.4959 -12.4505 -12.4211 -12.4012 -12.3829 -12.3748
     0.9016   1.3601   7.9775   8.2498   8.9291   9.5158  10.1764  11.0956
    11.2073  11.6084  11.7267  11.9057  12.0314  12.1751  12.1973  12.2608
    12.3007  13.1083  13.1605  14.2093  14.4720  14.6076  14.8104  14.8834
    14.9958  15.0369  15.0705  15.3344  15.4367  15.4718  15.5007  15.7099

          k = 0.1000 0.2887 0.1784 ( 10095 PWs)   bands (ev):

   -34.9559 -34.9500 -34.9496 -34.5160 -34.4825 -34.4818 -13.2583 -13.1826
   -13.1744 -13.0363 -12.9878 -12.9862 -12.9605 -12.9498 -12.9221 -12.7685
   -12.6375 -12.5709 -12.4978 -12.4581 -12.4285 -12.4018 -12.3853 -12.3844
     0.9581   1.3874   8.0578   8.3135   8.9598   9.5053  10.2225  10.9560
    11.0383  11.5073  11.6938  11.7966  12.0097  12.0904  12.2203  12.3106
    12.5120  13.1575  13.2336  13.9968  14.2919  14.3659  14.5558  14.7534
    14.8687  15.1079  15.3783  15.4267  15.4923  15.4959  15.6512  15.7631

          k = 0.1000 0.2887 0.3568 ( 10087 PWs)   bands (ev):

   -34.9533 -34.9480 -34.9476 -34.5147 -34.4810 -34.4804 -13.2457 -13.1777
   -13.1689 -13.0340 -13.0212 -13.0155 -13.0006 -12.9527 -12.9161 -12.7563
   -12.6268 -12.5826 -12.5031 -12.4747 -12.4456 -12.4157 -12.4005 -12.3937
     1.1193   1.4644   8.2814   8.4878   9.0255   9.4688  10.3214  10.3594
    10.3945  11.4647  11.8188  11.9190  11.9953  12.0218  12.3641  12.5034
    12.7343  13.1362  13.2600  13.6946  13.9599  14.0254  14.1730  14.4203
    14.7605  15.1124  15.3721  15.4348  15.5787  15.7007  15.9247  16.0687

          k = 0.1000 0.2887 0.5352 ( 10093 PWs)   bands (ev):

   -34.9496 -34.9453 -34.9449 -34.5130 -34.4789 -34.4785 -13.2288 -13.1724
   -13.1618 -13.0893 -13.0779 -13.0515 -12.9800 -12.9388 -12.9179 -12.7507
   -12.6202 -12.6004 -12.5108 -12.4941 -12.4622 -12.4453 -12.4113 -12.4081
     1.3599   1.5754   8.5733   8.7211   9.0240   9.3747   9.4813   9.7844
    10.5921  11.6886  11.9018  11.9490  12.0063  12.0276  12.5915  12.7704
    12.8569  13.0394  13.1473  13.6102  13.6707  13.7564  13.8996  14.1268
    14.6557  14.8422  15.3433  15.4534  15.6867  15.8432  16.0050  16.3159

          k = 0.1000 0.2887 0.7136 ( 10074 PWs)   bands (ev):

   -34.9459 -34.9426 -34.9422 -34.5112 -34.4767 -34.4766 -13.2126 -13.1702
   -13.1568 -13.1396 -13.1311 -13.0934 -12.9475 -12.9237 -12.9148 -12.7582
   -12.6199 -12.6184 -12.5190 -12.5181 -12.4716 -12.4622 -12.4292 -12.4230
     1.6317   1.6945   8.3814   8.7954   8.9285   9.1426   9.3368   9.5873
    10.8593  11.8888  11.9211  11.9612  12.0033  12.0447  12.5520  12.7948
    12.9927  13.0894  13.1342  13.4842  13.5754  13.6568  13.7381  14.0064
    14.5635  14.6350  15.2822  15.5046  15.6697  16.0775  16.1617  16.4106

          k = 0.1000 0.2887 0.8920 ( 10071 PWs)   bands (ev):

   -34.9432 -34.9406 -34.9401 -34.5100 -34.4752 -34.4752 -13.2015 -13.1861
   -13.1757 -13.1593 -13.1446 -13.1228 -12.9475 -12.9094 -12.8786 -12.7818
   -12.6304 -12.6208 -12.5405 -12.5253 -12.4723 -12.4629 -12.4476 -12.4385
     1.7877   1.8580   7.8363   8.5706   8.9630   9.1012   9.5669   9.6779
    11.0656  11.8237  11.8439  11.9962  12.0326  12.2759  12.4080  12.7715
    12.9544  13.0674  13.1184  13.4046  13.4781  13.7121  13.8315  13.8721
    14.5635  14.6321  15.0823  15.2990  16.1389  16.2381  16.3064  16.5090

          k = 0.1000 0.2887-1.0704 ( 10068 PWs)   bands (ev):

   -34.9422 -34.9398 -34.9394 -34.5095 -34.4747 -34.4746 -13.1987 -13.1949
   -13.1909 -13.1604 -13.1427 -13.1335 -12.9512 -12.9041 -12.8469 -12.8065
   -12.6342 -12.6210 -12.5493 -12.5277 -12.4687 -12.4585 -12.4565 -12.4494
     1.8232   1.9485   7.6291   8.4509   8.9663   9.0960   9.6912   9.7445
    11.1354  11.7695  11.7981  12.0095  12.0610  12.3319  12.4936  12.6804
    12.9072  13.0114  13.1462  13.3829  13.4306  13.6448  13.8493  13.9086
    14.6328  14.7392  14.9514  15.1374  16.2753  16.2877  16.5236  16.5413

          k = 0.1000 0.4041 0.0000 ( 10108 PWs)   bands (ev):

   -34.9557 -34.9517 -34.9506 -34.5174 -34.4828 -34.4817 -13.2497 -13.1974
   -13.1832 -13.0365 -12.9919 -12.9614 -12.9427 -12.9381 -12.9238 -12.7892
   -12.6228 -12.5497 -12.4991 -12.4677 -12.4273 -12.4048 -12.3811 -12.3728
     0.9690   1.2938   7.8746   8.2374   8.9202   9.5449  10.2618  11.1368
    11.3004  11.6058  11.7445  11.7945  12.0863  12.2041  12.2784  12.3268
    12.4225  12.9535  13.0080  14.1658  14.4951  14.5643  14.7828  14.8849
    14.9755  15.0081  15.1928  15.2657  15.3886  15.3982  15.5202  15.7123

          k = 0.1000 0.4041 0.1784 ( 10098 PWs)   bands (ev):

   -34.9548 -34.9509 -34.9499 -34.5169 -34.4823 -34.4812 -13.2457 -13.1949
   -13.1805 -13.0299 -12.9931 -12.9805 -12.9619 -12.9541 -12.9146 -12.7823
   -12.6203 -12.5549 -12.5008 -12.4705 -12.4329 -12.4063 -12.3857 -12.3824
     1.0216   1.3257   7.9557   8.2943   8.9509   9.5364  10.3124  11.0089
    11.1098  11.4196  11.6943  11.8402  12.0334  12.1294  12.2398  12.4241
    12.5708  13.0118  13.1561  13.9405  14.2497  14.3381  14.5322  14.7834
    14.9878  15.1053  15.2741  15.3582  15.4481  15.4733  15.7195  15.8569

          k = 0.1000 0.4041 0.3568 ( 10098 PWs)   bands (ev):

   -34.9523 -34.9488 -34.9478 -34.5154 -34.4808 -34.4799 -13.2352 -13.1884
   -13.1731 -13.0288 -13.0221 -13.0123 -12.9992 -12.9579 -12.9115 -12.7708
   -12.6172 -12.5696 -12.5053 -12.4768 -12.4459 -12.4138 -12.4061 -12.3977
     1.1715   1.4154   8.1805   8.4508   9.0180   9.5024  10.3345  10.4067
    10.4917  11.4475  11.8333  11.9317  12.0291  12.0521  12.3703  12.5917
    12.7311  13.0488  13.3638  13.5230  13.9058  14.0415  14.1253  14.4944
    14.8079  15.1191  15.3121  15.4932  15.5780  15.6300  15.8605  16.1153

          k = 0.1000 0.4041 0.5352 ( 10090 PWs)   bands (ev):

   -34.9488 -34.9459 -34.9450 -34.5134 -34.4787 -34.4782 -13.2216 -13.1807
   -13.1632 -13.0863 -13.0773 -13.0499 -12.9765 -12.9399 -12.9186 -12.7649
   -12.6190 -12.5924 -12.5119 -12.4856 -12.4590 -12.4392 -12.4227 -12.4129
     1.3943   1.5453   8.4662   8.6758   8.9980   9.3908   9.5724   9.7936
    10.6742  11.6791  11.8942  11.9623  12.0468  12.0872  12.5772  12.7513
    12.8585  13.0184  13.1847  13.5147  13.6075  13.8202  13.8650  14.2709
    14.6338  14.9036  15.3281  15.4543  15.6678  15.8223  16.0067  16.2610

          k = 0.1000 0.4041 0.7136 ( 10081 PWs)   bands (ev):

   -34.9453 -34.9430 -34.9422 -34.5115 -34.4767 -34.4764 -13.2094 -13.1753
   -13.1552 -13.1375 -13.1300 -13.0914 -12.9505 -12.9260 -12.9100 -12.7689
   -12.6232 -12.6199 -12.5190 -12.5039 -12.4679 -12.4547 -12.4398 -12.4269
     1.6439   1.6853   8.4068   8.6567   8.9218   9.1886   9.3258   9.6130
    10.8838  11.8904  11.9279  12.0116  12.0495  12.0824  12.5186  12.7835
    12.9411  13.0864  13.1516  13.4320  13.4549  13.6697  13.7298  14.1363
    14.5957  14.7890  15.3459  15.5513  15.7336  16.0223  16.1740  16.2570

          k = 0.1000 0.4041 0.8920 ( 10058 PWs)   bands (ev):

   -34.9428 -34.9410 -34.9402 -34.5100 -34.4752 -34.4752 -13.2013 -13.1837
   -13.1750 -13.1624 -13.1404 -13.1208 -12.9591 -12.9052 -12.8733 -12.7850
   -12.6445 -12.6252 -12.5249 -12.5242 -12.4693 -12.4626 -12.4492 -12.4396
     1.7954   1.8502   7.9156   8.4266   8.9778   9.1951   9.4872   9.6401
    11.0271  11.9276  11.9582  11.9905  12.0404  12.2438  12.4025  12.7913
    12.9009  13.0235  13.1586  13.3260  13.4182  13.6722  13.7227  13.8792
    14.6933  14.8841  15.2810  15.4999  15.9985  16.1910  16.3050  16.5206

          k = 0.1000 0.4041-1.0704 ( 10058 PWs)   bands (ev):

   -34.9419 -34.9402 -34.9394 -34.5095 -34.4747 -34.4746 -13.1983 -13.1933
   -13.1893 -13.1643 -13.1376 -13.1314 -12.9650 -12.8964 -12.8460 -12.8028
   -12.6545 -12.6256 -12.5331 -12.5264 -12.4698 -12.4644 -12.4519 -12.4451
     1.8377   1.9319   7.7231   8.3069   8.9935   9.1971   9.5983   9.6725
    11.0736  11.9113  11.9490  11.9756  12.0682  12.2828  12.4510  12.7625
    12.8739  12.9855  13.1036  13.2793  13.4469  13.6896  13.6975  13.7749
    14.7810  14.9808  15.2255  15.3979  16.0308  16.2420  16.5456  16.6559

          k = 0.1000 0.5196 0.0000 ( 10116 PWs)   bands (ev):

   -34.9545 -34.9527 -34.9507 -34.5179 -34.4827 -34.4813 -13.2369 -13.2095
   -13.1875 -13.0255 -13.0033 -12.9552 -12.9482 -12.9388 -12.9220 -12.7919
   -12.5995 -12.5570 -12.5011 -12.4709 -12.4337 -12.4068 -12.3800 -12.3719
     1.0297   1.2340   7.8122   8.2110   8.9564   9.5706  10.2733  11.1693
    11.3844  11.6208  11.7043  11.7353  12.1405  12.2192  12.2463  12.3833
    12.5495  12.8425  12.9632  14.1562  14.5158  14.5473  14.6245  14.8849
    14.9925  15.1079  15.1306  15.2182  15.3070  15.4869  15.5816  15.7253

          k = 0.1000 0.5196 0.1784 ( 10102 PWs)   bands (ev):

   -34.9536 -34.9519 -34.9500 -34.5174 -34.4821 -34.4809 -13.2338 -13.2063
   -13.1843 -13.0209 -13.0010 -12.9734 -12.9653 -12.9581 -12.9132 -12.7860
   -12.6019 -12.5586 -12.5025 -12.4718 -12.4382 -12.4090 -12.3859 -12.3812
     1.0787   1.2698   7.8935   8.2651   8.9848   9.5620  10.3298  11.0422
    11.2066  11.3202  11.6968  11.8648  12.0565  12.1362  12.2533  12.4809
    12.6057  12.9859  13.0698  13.9620  14.2135  14.3268  14.5180  14.7326
    15.0304  15.1596  15.2294  15.3180  15.4021  15.4641  15.7084  15.8283

          k = 0.1000 0.5196 0.3568 ( 10106 PWs)   bands (ev):

   -34.9512 -34.9497 -34.9480 -34.5158 -34.4807 -34.4797 -13.2257 -13.1978
   -13.1757 -13.0259 -13.0233 -13.0155 -12.9844 -12.9674 -12.9115 -12.7770
   -12.6093 -12.5671 -12.5067 -12.4719 -12.4489 -12.4172 -12.4059 -12.4005
     1.2183   1.3708   8.1177   8.4157   9.0449   9.5255  10.3326  10.4357
    10.5407  11.4379  11.8562  11.9167  12.0550  12.0712  12.3847  12.6152
    12.6993  13.0767  13.2779  13.5891  13.8638  14.0403  14.1236  14.5033
    14.8280  15.1002  15.2634  15.4770  15.5811  15.6159  15.8921  16.1442

          k = 0.1000 0.5196 0.5352 ( 10091 PWs)   bands (ev):

   -34.9480 -34.9466 -34.9451 -34.5137 -34.4787 -34.4780 -13.2157 -13.1873
   -13.1638 -13.0832 -13.0772 -13.0528 -12.9668 -12.9421 -12.9219 -12.7739
   -12.6184 -12.5885 -12.5126 -12.4723 -12.4596 -12.4358 -12.4337 -12.4160
     1.4247   1.5175   8.3990   8.6449   8.9942   9.4039   9.6453   9.7847
    10.7121  11.6749  11.8905  11.9666  12.0662  12.1358  12.6003  12.6632
    12.8340  13.0233  13.2774  13.4103  13.5879  13.8585  13.8774  14.3752
    14.6200  14.9227  15.2847  15.4039  15.6515  15.8483  16.0914  16.2166

          k = 0.1000 0.5196 0.7136 ( 10076 PWs)   bands (ev):

   -34.9448 -34.9435 -34.9423 -34.5116 -34.4767 -34.4764 -13.2069 -13.1788
   -13.1529 -13.1373 -13.1282 -13.0930 -12.9508 -12.9276 -12.9048 -12.7785
   -12.6249 -12.6206 -12.5190 -12.4882 -12.4671 -12.4566 -12.4442 -12.4301
     1.6547   1.6766   8.4568   8.5397   8.9133   9.2259   9.3262   9.6195
    10.8935  11.8808  11.9276  12.0337  12.0974  12.1178  12.4952  12.8037
    12.8703  13.0758  13.2205  13.3072  13.4169  13.6969  13.7278  14.2188
    14.6238  14.9445  15.3655  15.4817  15.7327  16.0351  16.1592  16.2275

          k = 0.1000 0.5196 0.8920 ( 10057 PWs)   bands (ev):

   -34.9425 -34.9413 -34.9402 -34.5100 -34.4752 -34.4751 -13.2011 -13.1795
   -13.1754 -13.1646 -13.1379 -13.1219 -12.9656 -12.9030 -12.8667 -12.7892
   -12.6537 -12.6275 -12.5238 -12.5097 -12.4747 -12.4666 -12.4450 -12.4396
     1.8024   1.8431   7.9947   8.3090   8.9936   9.2875   9.4107   9.6022
    11.0044  11.9363  12.0011  12.0690  12.0749  12.2091  12.3998  12.8136
    12.8399  13.0024  13.2111  13.2752  13.3732  13.6308  13.6422  13.9293
    14.7575  15.0904  15.4182  15.5711  15.8689  16.1503  16.3966  16.4724

          k = 0.1000 0.5196-1.0704 ( 10048 PWs)   bands (ev):

   -34.9416 -34.9405 -34.9394 -34.5095 -34.4747 -34.4746 -13.1978 -13.1914
   -13.1870 -13.1673 -13.1347 -13.1324 -12.9728 -12.8908 -12.8472 -12.7972
   -12.6694 -12.6278 -12.5256 -12.5183 -12.4816 -12.4622 -12.4533 -12.4383
     1.8510   1.9174   7.8122   8.1883   9.0210   9.2862   9.5251   9.6051
    11.0387  11.9522  12.0191  12.0559  12.0768  12.2519  12.4118  12.8170
    12.8187  12.9413  13.1410  13.2245  13.4463  13.6118  13.6852  13.7397
    14.8376  15.1553  15.4522  15.5687  15.8364  16.2240  16.5861  16.5959

          k = 0.2000 0.3464 0.0000 ( 10096 PWs)   bands (ev):

   -34.9559 -34.9513 -34.9508 -34.5173 -34.4828 -34.4819 -13.2517 -13.1957
   -13.1821 -13.0371 -12.9871 -12.9622 -12.9406 -12.9392 -12.9333 -12.7802
   -12.6301 -12.5508 -12.4988 -12.4652 -12.4264 -12.4046 -12.3809 -12.3733
     0.9602   1.3026   7.8397   8.3379   8.8390   9.5849  10.2356  11.1334
    11.2889  11.6374  11.7138  11.8067  12.0857  12.2021  12.2837  12.3056
    12.3842  12.9822  13.0299  14.1999  14.4760  14.5718  14.8340  14.8491
    14.9319  14.9557  15.1183  15.3074  15.3946  15.4304  15.4677  15.8101

          k = 0.2000 0.3464 0.1784 ( 10108 PWs)   bands (ev):

   -34.9550 -34.9506 -34.9500 -34.5168 -34.4822 -34.4814 -13.2476 -13.1933
   -13.1794 -13.0303 -12.9895 -12.9824 -12.9635 -12.9522 -12.9200 -12.7757
   -12.6255 -12.5562 -12.5004 -12.4686 -12.4320 -12.4062 -12.3852 -12.3830
     1.0133   1.3339   7.9207   8.3946   8.8705   9.5749  10.2878  11.0146
    11.0866  11.4396  11.7330  11.7818  12.0441  12.1226  12.2419  12.4012
    12.5456  13.0715  13.1536  13.9518  14.2676  14.3120  14.4800  14.8132
    15.0182  15.0944  15.2478  15.3235  15.4425  15.4814  15.7762  15.8987

          k = 0.2000 0.3464 0.3568 ( 10097 PWs)   bands (ev):

   -34.9524 -34.9485 -34.9479 -34.5153 -34.4807 -34.4801 -13.2367 -13.1872
   -13.1722 -13.0299 -13.0212 -13.0125 -13.0005 -12.9548 -12.9143 -12.7685
   -12.6178 -12.5720 -12.5051 -12.4765 -12.4452 -12.4136 -12.4059 -12.3976
     1.1647   1.4220   8.1473   8.5463   8.9408   9.5399  10.3460  10.4006
    10.4565  11.4496  11.8433  11.9192  12.0323  12.0417  12.3726  12.5813
    12.6946  13.1268  13.3173  13.5791  13.9559  13.9705  14.0550  14.5117
    14.8713  15.1060  15.3392  15.4335  15.5956  15.6176  16.0021  16.0986

          k = 0.2000 0.3464 0.5352 ( 10090 PWs)   bands (ev):

   -34.9489 -34.9457 -34.9451 -34.5134 -34.4787 -34.4783 -13.2224 -13.1805
   -13.1623 -13.0867 -13.0771 -13.0509 -12.9764 -12.9388 -12.9188 -12.7649
   -12.6162 -12.5955 -12.5118 -12.4872 -12.4582 -12.4404 -12.4175 -12.4161
     1.3897   1.5495   8.4580   8.7252   8.9469   9.4459   9.5442   9.7929
    10.6535  11.6765  11.9105  11.9401  12.0571  12.0732  12.5668  12.7902
    12.8122  13.0848  13.1458  13.6043  13.6462  13.7234  13.7930  14.2683
    14.6801  14.8901  15.3664  15.4308  15.7095  15.7653  16.0207  16.2772

          k = 0.2000 0.3464 0.7136 ( 10069 PWs)   bands (ev):

   -34.9454 -34.9429 -34.9423 -34.5114 -34.4767 -34.4765 -13.2092 -13.1766
   -13.1533 -13.1383 -13.1300 -13.0925 -12.9513 -12.9185 -12.9158 -12.7681
   -12.6224 -12.6206 -12.5190 -12.5062 -12.4653 -12.4572 -12.4369 -12.4283
     1.6421   1.6868   8.4009   8.7169   8.8358   9.2237   9.3448   9.6024
    10.8743  11.8898  11.9280  11.9888  12.0627  12.0649  12.5154  12.8390
    12.9446  13.0891  13.1248  13.4673  13.4731  13.6671  13.6674  14.1248
    14.6178  14.7495  15.3624  15.5378  15.7708  16.0446  16.0709  16.2913

          k = 0.2000 0.3464 0.8920 ( 10060 PWs)   bands (ev):

   -34.9429 -34.9409 -34.9402 -34.5100 -34.4752 -34.4752 -13.1999 -13.1862
   -13.1732 -13.1629 -13.1406 -13.1219 -12.9588 -12.9019 -12.8766 -12.7837
   -12.6389 -12.6304 -12.5269 -12.5245 -12.4673 -12.4579 -12.4542 -12.4399
     1.7950   1.8507   7.9047   8.4483   8.9639   9.1886   9.5021   9.6437
    11.0273  11.9240  11.9365  12.0074  12.0176  12.2193  12.4281  12.8296
    12.9195  13.0742  13.0968  13.3414  13.3899  13.6828  13.7353  13.8563
    14.7598  14.7716  15.2637  15.4802  16.1099  16.1842  16.2482  16.4529

          k = 0.2000 0.3464-1.0704 ( 10048 PWs)   bands (ev):

   -34.9419 -34.9401 -34.9394 -34.5095 -34.4747 -34.4746 -13.1967 -13.1930
   -13.1906 -13.1647 -13.1378 -13.1325 -12.9643 -12.8954 -12.8472 -12.8026
   -12.6451 -12.6337 -12.5352 -12.5266 -12.4672 -12.4613 -12.4526 -12.4488
     1.8364   1.9335   7.7113   8.3240   8.9932   9.1857   9.6010   9.6836
    11.0770  11.9048  11.9167  11.9988  12.0478  12.2640  12.4706  12.8100
    12.8859  13.0311  13.0610  13.2815  13.4289  13.6530  13.7269  13.7812
    14.8379  14.8737  15.1889  15.3737  16.1550  16.2510  16.4629  16.6180

          k = 0.2000 0.4619 0.0000 ( 10118 PWs)   bands (ev):

   -34.9547 -34.9521 -34.9511 -34.5179 -34.4824 -34.4816 -13.2391 -13.2073
   -13.1871 -13.0250 -12.9940 -12.9566 -12.9447 -12.9428 -12.9409 -12.7734
   -12.6118 -12.5561 -12.5011 -12.4672 -12.4339 -12.4071 -12.3788 -12.3728
     1.0277   1.2363   7.7360   8.3887   8.8127   9.6449  10.2359  11.1799
    11.3845  11.6484  11.7025  11.7074  12.1452  12.2117  12.2560  12.3607
    12.4937  12.9032  12.9705  14.2230  14.5187  14.5462  14.6683  14.8276
    14.8436  14.9802  15.0343  15.2402  15.2842  15.5736  15.6132  15.8252

          k = 0.2000 0.4619 0.1784 ( 10122 PWs)   bands (ev):

   -34.9538 -34.9514 -34.9503 -34.5174 -34.4819 -34.4811 -13.2356 -13.2045
   -13.1839 -13.0199 -12.9945 -12.9781 -12.9659 -12.9563 -12.9249 -12.7731
   -12.6095 -12.5596 -12.5026 -12.4684 -12.4378 -12.4098 -12.3849 -12.3820
     1.0767   1.2720   7.8178   8.4386   8.8441   9.6347  10.2953  11.0709
    11.1584  11.3559  11.7365  11.7982  12.0720  12.1298  12.2685  12.4489
    12.5558  13.0403  13.1133  13.9715  14.2332  14.2801  14.4135  14.7996
    15.0681  15.0955  15.1815  15.2503  15.4299  15.4804  15.8744  15.9281

          k = 0.2000 0.4619 0.3568 ( 10098 PWs)   bands (ev):

   -34.9514 -34.9492 -34.9482 -34.5158 -34.4805 -34.4798 -13.2266 -13.1974
   -13.1750 -13.0271 -13.0220 -13.0168 -12.9861 -12.9597 -12.9184 -12.7746
   -12.6074 -12.5714 -12.5067 -12.4706 -12.4471 -12.4173 -12.4064 -12.4012
     1.2164   1.3728   8.0473   8.5698   8.9141   9.5995  10.3623  10.4198
    10.4946  11.4449  11.8617  11.9098  12.0551  12.0653  12.3998  12.5925
    12.6311  13.1634  13.3775  13.5520  13.8937  13.9599  13.9768  14.5793
    14.9313  15.0867  15.2804  15.3863  15.6205  15.6555  15.9476  16.1430

          k = 0.2000 0.4619 0.5352 ( 10088 PWs)   bands (ev):

   -34.9481 -34.9463 -34.9453 -34.5137 -34.4786 -34.4781 -13.2152 -13.1890
   -13.1625 -13.0827 -13.0769 -13.0558 -12.9641 -12.9398 -12.9232 -12.7774
   -12.6126 -12.5931 -12.5126 -12.4743 -12.4557 -12.4371 -12.4283 -12.4214
     1.4230   1.5193   8.3691   8.7136   8.9075   9.4991   9.6312   9.7771
    10.6812  11.6746  11.9002  11.9373  12.0970  12.1228  12.5499  12.6907
    12.8152  13.1323  13.2384  13.5195  13.6078  13.7362  13.7569  14.3947
    14.6973  14.9281  15.3382  15.3712  15.6997  15.8098  16.0043  16.2124

          k = 0.2000 0.4619 0.7136 ( 10072 PWs)   bands (ev):

   -34.9449 -34.9434 -34.9424 -34.5116 -34.4766 -34.4764 -13.2050 -13.1824
   -13.1505 -13.1351 -13.1296 -13.0961 -12.9527 -12.9182 -12.9094 -12.7800
   -12.6246 -12.6219 -12.5189 -12.4901 -12.4614 -12.4537 -12.4461 -12.4339
     1.6531   1.6783   8.4405   8.6082   8.7878   9.2973   9.3646   9.5972
    10.8766  11.8826  11.9250  11.9892  12.1085  12.1229  12.4860  12.8723
    12.9316  13.0614  13.1640  13.3503  13.4288  13.6448  13.6761  14.2072
    14.6818  14.8797  15.3927  15.5702  15.7558  15.9802  16.1106  16.1557

          k = 0.2000 0.4619 0.8920 ( 10063 PWs)   bands (ev):

   -34.9425 -34.9413 -34.9402 -34.5100 -34.4752 -34.4752 -13.1978 -13.1840
   -13.1719 -13.1654 -13.1377 -13.1249 -12.9672 -12.8953 -12.8725 -12.7867
   -12.6487 -12.6360 -12.5238 -12.5109 -12.4719 -12.4592 -12.4508 -12.4409
     1.8042   1.8413   7.9914   8.3196   8.9730   9.2850   9.4404   9.5909
    10.9965  11.9502  11.9900  12.0474  12.0726  12.1605  12.4445  12.8785
    12.9154  13.0446  13.1305  13.2561  13.3502  13.6176  13.6445  13.8870
    14.8351  14.9758  15.4263  15.6249  15.9801  16.1259  16.3033  16.3807

          k = 0.2000 0.4619-1.0704 ( 10034 PWs)   bands (ev):

   -34.9416 -34.9405 -34.9394 -34.5095 -34.4747 -34.4747 -13.1939 -13.1897
   -13.1890 -13.1697 -13.1353 -13.1341 -12.9741 -12.8859 -12.8508 -12.7949
   -12.6602 -12.6404 -12.5256 -12.5193 -12.4786 -12.4560 -12.4552 -12.4423
     1.8528   1.9155   7.8124   8.1883   9.0327   9.2875   9.5091   9.6040
    11.0330  11.9843  12.0170  12.0334  12.0486  12.2048  12.4533  12.8517
    12.9449  12.9857  13.0682  13.2137  13.4191  13.6317  13.6522  13.6747
    14.9162  15.0431  15.4311  15.5890  15.9878  16.2201  16.4982  16.6245

          k = 0.2000 0.5774 0.0000 ( 10130 PWs)   bands (ev):

   -34.9538 -34.9529 -34.9512 -34.5182 -34.4823 -34.4815 -13.2308 -13.2149
   -13.1892 -13.0122 -13.0045 -12.9517 -12.9491 -12.9479 -12.9414 -12.7690
   -12.5964 -12.5702 -12.5020 -12.4628 -12.4390 -12.4080 -12.3779 -12.3728
     1.0695   1.1950   7.6981   8.3984   8.8183   9.6698  10.2236  11.2020
    11.4438  11.6409  11.6563  11.6995  12.1845  12.2246  12.2347  12.3471
    12.5381  12.8739  12.9722  14.2392  14.5587  14.5652  14.5782  14.7975
    14.8059  14.8881  15.1009  15.2010  15.2240  15.7049  15.7478  15.8418

          k = 0.2000 0.5774 0.1784 ( 10107 PWs)   bands (ev):

   -34.9530 -34.9521 -34.9504 -34.5176 -34.4818 -34.4810 -13.2279 -13.2118
   -13.1857 -13.0103 -13.0017 -12.9764 -12.9653 -12.9596 -12.9280 -12.7705
   -12.5973 -12.5697 -12.5034 -12.4640 -12.4423 -12.4111 -12.3848 -12.3817
     1.1160   1.2334   7.7802   8.4459   8.8490   9.6591  10.2866  11.0939
    11.2238  11.2882  11.7321  11.8104  12.0867  12.1283  12.2864  12.4422
    12.5550  13.0658  13.0829  13.9971  14.2149  14.2720  14.3887  14.7627
    15.0614  15.0975  15.1540  15.2454  15.4144  15.5752  15.7901  15.9138

          k = 0.2000 0.5774 0.3568 ( 10109 PWs)   bands (ev):

   -34.9507 -34.9498 -34.9483 -34.5160 -34.4804 -34.4798 -13.2203 -13.2037
   -13.1760 -13.0251 -13.0233 -13.0188 -12.9714 -12.9693 -12.9216 -12.7760
   -12.6015 -12.5743 -12.5073 -12.4647 -12.4502 -12.4199 -12.4057 -12.4029
     1.2483   1.3420   8.0108   8.5702   8.9162   9.6230  10.3650  10.4330
    10.4999  11.4456  11.8804  11.8896  12.0609  12.0819  12.4255  12.5525
    12.6162  13.2343  13.3204  13.5981  13.8595  13.9556  13.9566  14.6030
    14.9354  15.0743  15.2489  15.3715  15.6469  15.6942  15.9378  16.1633

          k = 0.2000 0.5774 0.5352 ( 10091 PWs)   bands (ev):

   -34.9476 -34.9468 -34.9454 -34.5138 -34.4785 -34.4781 -13.2109 -13.1936
   -13.1625 -13.0801 -13.0771 -13.0591 -12.9548 -12.9421 -12.9267 -12.7825
   -12.6112 -12.5925 -12.5129 -12.4634 -12.4578 -12.4355 -12.4354 -12.4235
     1.4434   1.5002   8.3360   8.7053   8.8977   9.5183   9.6910   9.7480
    10.6867  11.6771  11.8912  11.9368  12.1088  12.1500  12.5390  12.6578
    12.8050  13.1463  13.3313  13.4213  13.5990  13.7499  13.7542  14.4548
    14.7029  14.9254  15.3203  15.3363  15.7041  15.8795  16.0335  16.0913

          k = 0.2000 0.5774 0.7136 ( 10083 PWs)   bands (ev):

   -34.9445 -34.9437 -34.9424 -34.5116 -34.4766 -34.4764 -13.2026 -13.1854
   -13.1491 -13.1339 -13.1289 -13.0987 -12.9531 -12.9183 -12.9054 -12.7858
   -12.6253 -12.6223 -12.5189 -12.4787 -12.4625 -12.4579 -12.4455 -12.4373
     1.6597   1.6725   8.4996   8.5196   8.7737   9.3367   9.3669   9.5900
    10.8757  11.8799  11.9241  11.9816  12.1387  12.1413  12.4755  12.8733
    12.9346  13.0704  13.1716  13.3153  13.3845  13.6569  13.6713  14.2339
    14.7082  14.9444  15.4144  15.5312  15.7705  15.9834  16.0620  16.1381

          k = 0.2000 0.5774 0.8920 ( 10074 PWs)   bands (ev):

   -34.9422 -34.9415 -34.9402 -34.5100 -34.4752 -34.4752 -13.1968 -13.1825
   -13.1722 -13.1656 -13.1366 -13.1272 -12.9702 -12.8928 -12.8699 -12.7884
   -12.6532 -12.6375 -12.5235 -12.5008 -12.4793 -12.4598 -12.4476 -12.4416
     1.8099   1.8356   8.0503   8.2447   8.9789   9.3516   9.3969   9.5585
    10.9848  11.9469  11.9963  12.0974  12.0992  12.1310  12.4499  12.8659
    12.9384  13.0495  13.1347  13.2454  13.3163  13.6009  13.6026  13.8962
    14.8531  15.0729  15.5276  15.6302  15.9249  16.1472  16.2745  16.3685

          k = 0.2000 0.5774-1.0704 ( 10052 PWs)   bands (ev):

   -34.9414 -34.9407 -34.9394 -34.5095 -34.4747 -34.4747 -13.1932 -13.1876
   -13.1872 -13.1724 -13.1375 -13.1328 -12.9777 -12.8810 -12.8536 -12.7905
   -12.6679 -12.6422 -12.5253 -12.5094 -12.4868 -12.4562 -12.4543 -12.4397
     1.8630   1.9046   7.8780   8.1099   9.0551   9.3481   9.4647   9.5533
    11.0167  11.9759  12.0553  12.0631  12.0841  12.1796  12.4456  12.8345
    12.9568  13.0037  13.0884  13.1921  13.4062  13.6025  13.6287  13.6476
    14.9249  15.1303  15.5692  15.6585  15.9038  16.2450  16.5046  16.5531

          k = 0.3000 0.5196 0.0000 ( 10146 PWs)   bands (ev):

   -34.9537 -34.9527 -34.9516 -34.5183 -34.4820 -34.4817 -13.2284 -13.2169
   -13.1899 -13.0082 -12.9967 -12.9659 -12.9514 -12.9468 -12.9440 -12.7572
   -12.5979 -12.5757 -12.5024 -12.4569 -12.4430 -12.4084 -12.3764 -12.3739
     1.0929   1.1720   7.6564   8.5348   8.7005   9.7137  10.1969  11.2169
    11.4810  11.6021  11.6732  11.6819  12.2160  12.2213  12.2359  12.3118
    12.5204  12.9196  12.9597  14.3080  14.5658  14.5867  14.5964  14.7261
    14.7347  14.7610  15.0846  15.1968  15.1981  15.7279  15.8535  15.8593

          k = 0.3000 0.5196 0.1784 ( 10126 PWs)   bands (ev):

   -34.9528 -34.9519 -34.9508 -34.5177 -34.4815 -34.4812 -13.2254 -13.2141
   -13.1862 -13.0058 -12.9961 -12.9846 -12.9642 -12.9593 -12.9358 -12.7623
   -12.5959 -12.5758 -12.5037 -12.4584 -12.4456 -12.4120 -12.3838 -12.3825
     1.1379   1.2119   7.7392   8.5767   8.7348   9.7017  10.2629  11.1382
    11.1883  11.2969  11.7642  11.7694  12.1006  12.1218  12.3184  12.4023
    12.5276  13.0950  13.1089  14.0113  14.2329  14.2622  14.3049  14.7921
    15.0042  15.0431  15.1996  15.2007  15.4347  15.6407  15.8603  15.9167

          k = 0.3000 0.5196 0.3568 ( 10115 PWs)   bands (ev):

   -34.9506 -34.9497 -34.9485 -34.5161 -34.4802 -34.4799 -13.2175 -13.2067
   -13.1761 -13.0249 -13.0223 -13.0211 -12.9709 -12.9622 -12.9291 -12.7751
   -12.5955 -12.5806 -12.5075 -12.4607 -12.4510 -12.4214 -12.4056 -12.4039
     1.2658   1.3250   7.9729   8.6806   8.8142   9.6652  10.4020  10.4227
    10.4615  11.4514  11.8754  11.8902  12.0731  12.0786  12.4593  12.5297
    12.5560  13.3049  13.3882  13.5794  13.8068  13.9096  13.9220  14.6588
    14.9850  15.0321  15.2676  15.3007  15.7120  15.7832  15.9905  16.0142

          k = 0.3000 0.5196 0.5352 ( 10079 PWs)   bands (ev):

   -34.9475 -34.9468 -34.9455 -34.5139 -34.4784 -34.4782 -13.2076 -13.1976
   -13.1619 -13.0783 -13.0768 -13.0627 -12.9484 -12.9401 -12.9317 -12.7864
   -12.6053 -12.5971 -12.5130 -12.4613 -12.4542 -12.4359 -12.4323 -12.4311
     1.4540   1.4902   8.3117   8.7569   8.8319   9.5938   9.6842   9.7337
    10.6692  11.6812  11.8985  11.9110  12.1416  12.1456  12.4975  12.6968
    12.7630  13.2285  13.3345  13.4921  13.5545  13.6857  13.6946  14.4842
    14.7699  14.8871  15.3200  15.3410  15.8077  15.8423  15.9765  16.0273

          k = 0.3000 0.5196 0.7136 ( 10084 PWs)   bands (ev):

   -34.9443 -34.9438 -34.9425 -34.5117 -34.4765 -34.4764 -13.1988 -13.1899
   -13.1475 -13.1309 -13.1301 -13.1022 -12.9540 -12.9110 -12.9084 -12.7893
   -12.6249 -12.6236 -12.5189 -12.4749 -12.4611 -12.4510 -12.4507 -12.4423
     1.6618   1.6709   8.4946   8.5605   8.6945   9.3763   9.3990   9.5665
    10.8653  11.8938  11.9208  11.9422  12.1507  12.1585  12.4652  12.9399
    12.9448  13.0942  13.1147  13.3257  13.3768  13.6218  13.6472  14.2344
    14.7833  14.8882  15.4622  15.5733  15.8293  15.8928  16.0018  16.1044

          k = 0.3000 0.5196 0.8920 ( 10067 PWs)   bands (ev):

   -34.9421 -34.9416 -34.9402 -34.5100 -34.4752 -34.4752 -13.1928 -13.1865
   -13.1688 -13.1668 -13.1360 -13.1303 -12.9720 -12.8848 -12.8751 -12.7875
   -12.6501 -12.6450 -12.5234 -12.4964 -12.4815 -12.4552 -12.4496 -12.4437
     1.8154   1.8301   8.0841   8.2086   8.9709   9.3725   9.4115   9.5273
    10.9761  11.9646  11.9820  12.0736  12.1204  12.1206  12.4674  12.9024
    13.0272  13.0372  13.1301  13.2100  13.2705  13.5852  13.5938  13.8687
    14.9367  15.0064  15.5764  15.6886  15.9763  16.1096  16.2462  16.2749

          k = 0.3000 0.5196-1.0704 ( 10040 PWs)   bands (ev):

   -34.9412 -34.9408 -34.9394 -34.5095 -34.4747 -34.4747 -13.1890 -13.1889
   -13.1843 -13.1762 -13.1405 -13.1320 -12.9797 -12.8737 -12.8595 -12.7870
   -12.6620 -12.6538 -12.5251 -12.5049 -12.4895 -12.4577 -12.4485 -12.4428
     1.8715   1.8959   7.9200   8.0631   9.0746   9.3837   9.4357   9.5203
    11.0076  12.0043  12.0306  12.0816  12.0862  12.1481  12.4693  12.8561
    12.9939  13.0229  13.1241  13.1758  13.3852  13.5658  13.5996  13.6078
    15.0050  15.0647  15.6149  15.6973  15.9864  16.2617  16.4842  16.5467

     the Fermi energy is    14.1566 ev
     (compare with:    14.1491 eV, computed in scf)

     Writing all to output data dir ./tmp/Zr6CoTe2.save/ :
     XML data file, pseudopotentials, collected wavefunctions

     init_run     :      1.05s CPU      1.24s WALL (       1 calls)
     electrons    :   2483.52s CPU   2493.67s WALL (       1 calls)

     Called by init_run:
     wfcinit      :      0.00s CPU      0.00s WALL (       1 calls)
     potinit      :      0.14s CPU      0.16s WALL (       1 calls)
     hinit0       :      0.29s CPU      0.31s WALL (       1 calls)

     Called by electrons:
     c_bands      :   2483.51s CPU   2493.66s WALL (       1 calls)
     v_of_rho     :      0.12s CPU      0.13s WALL (       1 calls)
     newd         :      0.54s CPU      0.67s WALL (       1 calls)

     Called by c_bands:
     init_us_2    :      0.84s CPU      0.84s WALL (      98 calls)
     cegterg      :   2319.64s CPU   2328.57s WALL (     299 calls)

     Called by *egterg:
     cdiaghg      :     39.10s CPU     39.16s WALL (    5257 calls)
     h_psi        :   1095.68s CPU   1104.19s WALL (    5556 calls)
     s_psi        :    245.12s CPU    245.32s WALL (    5556 calls)
     g_psi        :      3.25s CPU      3.27s WALL (    5159 calls)

     Called by h_psi:
     h_psi:calbec :    330.18s CPU    330.65s WALL (    5556 calls)
     vloc_psi     :    517.79s CPU    525.58s WALL (    5556 calls)
     add_vuspsi   :    244.25s CPU    244.50s WALL (    5556 calls)

     General routines
     calbec       :    330.15s CPU    330.63s WALL (    5556 calls)
     fft          :      0.08s CPU      0.08s WALL (      13 calls)
     ffts         :      0.00s CPU      0.00s WALL (       1 calls)
     fftw         :    431.14s CPU    437.17s WALL (  244524 calls)
     interpolate  :      0.01s CPU      0.01s WALL (       1 calls)
     davcio       :      0.60s CPU      1.16s WALL (     196 calls)

     Parallel routines

     PWSCF        :  41m26.80s CPU  41m38.45s WALL


   This run was terminated on:   9:35:57   6Aug2025            

=------------------------------------------------------------------------------=
   JOB DONE.
=------------------------------------------------------------------------------=
