
     Program PWSCF v.7.4.1 starts on 19Aug2025 at 15:29:19 

     This program is part of the open-source Quantum ESPRESSO suite
     for quantum simulation of materials; please cite
         "P. Giannozzi et al., J. Phys.:Condens. Matter 21 395502 (2009);
         "P. Giannozzi et al., J. Phys.:Condens. Matter 29 465901 (2017);
         "P. Giannozzi et al., J. Chem. Phys. 152 154105 (2020);
          URL http://www.quantum-espresso.org", 
     in publications or presentations arising from this work. More details at
     http://www.quantum-espresso.org/quote

     Parallel version (MPI), running on     2 processors

     MPI processes distributed on     1 nodes
     5507 MiB available memory on the printing compute node when the environment starts

     Waiting for input...
     Reading input from standard input
Warning: card &CELL ignored
Warning: card / ignored

     Current dimensions of program PWSCF are:
     Max number of different atomic species (ntypx) = 10
     Max number of k-points (npk) =  40000
     Max angular momentum in pseudopotentials (lmaxx) =  4
     file Zr.pbe-mt_fhi.upf: wavefunction(s)  4f renormalized
     file Ni.pbe-mt_fhi.upf: wavefunction(s)  2p 4f renormalized
     file Te.pbe-mt_fhi.upf: wavefunction(s)  5d 4f renormalized
     Message from routine setup:
     no reason to have ecutrho>4*ecutwfc

     R & G space division:  proc/nbgrp/npool/nimage =       2
     Subspace diagonalization in iterative solution of the eigenvalue problem:
     a serial algorithm will be used


     Parallelization info
     --------------------
     sticks:   dense  smooth     PW     G-vecs:    dense   smooth      PW
     Min        2658    1767    507                75267    40916    6252
     Max        2659    1768    508                75268    40917    6253
     Sum        5317    3535   1015               150535    81833   12505

     Using Slab Decomposition



     bravais-lattice index     =            4
     lattice parameter (alat)  =      14.6159  a.u.
     unit-cell volume          =    1304.9057 (a.u.)^3
     number of atoms/cell      =            9
     number of atomic types    =            3
     number of electrons       =        46.00
     number of Kohn-Sham states=           28
     kinetic-energy cutoff     =      60.0000  Ry
     charge density cutoff     =     360.0000  Ry
     scf convergence threshold =      1.0E-06
     mixing beta               =       0.4000
     number of iterations used =            8  plain     mixing
     Exchange-correlation= PBE
                           (   1   4   3   4   0   0   0)

     celldm(1)=  14.615898  celldm(2)=   0.000000  celldm(3)=   0.482583
     celldm(4)=   0.000000  celldm(5)=   0.000000  celldm(6)=   0.000000

     crystal axes: (cart. coord. in units of alat)
               a(1) = (   1.000000   0.000000   0.000000 )  
               a(2) = (  -0.500000   0.866025   0.000000 )  
               a(3) = (   0.000000   0.000000   0.482583 )  

     reciprocal axes: (cart. coord. in units 2 pi/alat)
               b(1) = (  1.000000  0.577350 -0.000000 )  
               b(2) = (  0.000000  1.154701  0.000000 )  
               b(3) = (  0.000000 -0.000000  2.072182 )  


     PseudoPot. # 1 for Zr read from file:
     /home/tauqeer/Zr6MTe2/sudopoten/Zr.pbe-mt_fhi.upf
     MD5 check sum: d7174933297848aa528ce1e54352b3ca
     Pseudo is Norm-conserving, Zval =  4.0
     Generated using FHI98PP, converted with fhi2upf.x v.5.0.2
     Using radial grid of  539 points,  3 beta functions with: 
                l(1) =   0
                l(2) =   2
                l(3) =   3

     PseudoPot. # 2 for Ni read from file:
     /home/tauqeer/Zr6MTe2/sudopoten/Ni.pbe-mt_fhi.upf
     MD5 check sum: c94771b9de4a0d900f7ebca65c7a7b16
     Pseudo is Norm-conserving, Zval = 10.0
     Generated using FHI98PP, converted with fhi2upf.x v.5.0.2
     Using radial grid of  525 points,  3 beta functions with: 
                l(1) =   1
                l(2) =   2
                l(3) =   3

     PseudoPot. # 3 for Te read from file:
     /home/tauqeer/Zr6MTe2/sudopoten/Te.pbe-mt_fhi.upf
     MD5 check sum: 85962a6ee3e6345fb8c79b5fb43653bb
     Pseudo is Norm-conserving, Zval =  6.0
     Generated using FHI98PP, converted with fhi2upf.x v.5.0.2
     Using radial grid of  549 points,  3 beta functions with: 
                l(1) =   1
                l(2) =   2
                l(3) =   3

     atomic species   valence    mass     pseudopotential
     Zr                4.00    91.22400     Zr( 1.00)
     Ni               10.00    58.69340     Ni( 1.00)
     Te                6.00   127.60000     Te( 1.00)

     12 Sym. Ops. (no inversion) found



   Cartesian axes

     site n.     atom                  positions (alat units)
         1        Zr     tau(   1) = (   0.2379872   0.0000000   0.0000000  )
         2        Zr     tau(   2) = (  -0.1189936   0.2061030   0.0000000  )
         3        Zr     tau(   3) = (   0.3810064   0.6599224   0.0000000  )
         4        Zr     tau(   4) = (   0.5923560   0.0000000   0.2412915  )
         5        Zr     tau(   5) = (  -0.2961780   0.5129954   0.2412915  )
         6        Zr     tau(   6) = (   0.2038220   0.3530300   0.2412915  )
         7        Ni     tau(   7) = (   0.0000000   0.0000000   0.2412915  )
         8        Te     tau(   8) = (  -0.0000000   0.5773503   0.0000000  )
         9        Te     tau(   9) = (   0.5000000   0.2886751   0.0000000  )

     number of k points=   183  Gaussian smearing, width (Ry)=  0.0200

     Number of k-points >= 100: set verbosity='high' to print them.

     Dense  grid:   150535 G-vectors     FFT dimensions: (  90,  90,  45)

     Smooth grid:    81833 G-vectors     FFT dimensions: (  75,  75,  36)

     Estimated max dynamical RAM per process >     471.30 MB

     Estimated total dynamical RAM >     942.61 MB

     Initial potential from superposition of free atoms

     starting charge      54.1551, renormalised to      46.0000

     negative rho (up, down):  2.551E-04 0.000E+00
     Starting wfcs are  144 randomized atomic wfcs

     total cpu time spent up to now is      331.4 secs

     Self-consistent Calculation

     iteration #  1     ecut=    60.00 Ry     beta= 0.40
     Davidson diagonalization with overlap
     ethr =  1.00E-02,  avg # of iterations =  4.1

     negative rho (up, down):  1.529E-04 0.000E+00

     total cpu time spent up to now is      520.5 secs

     total energy              =     -82.80485685 Ry
     estimated scf accuracy    <     181.58688909 Ry

     iteration #  2     ecut=    60.00 Ry     beta= 0.40
     Davidson diagonalization with overlap
     ethr =  1.00E-02,  avg # of iterations = 15.3

     total cpu time spent up to now is     1390.0 secs

     total energy              =    -113.99907553 Ry
     estimated scf accuracy    <     206.01258313 Ry

     iteration #  3     ecut=    60.00 Ry     beta= 0.40
     Davidson diagonalization with overlap
     ethr =  1.00E-02,  avg # of iterations =  8.6

     total cpu time spent up to now is     1830.4 secs

     total energy              =    -139.08359061 Ry
     estimated scf accuracy    <       7.87825317 Ry

     iteration #  4     ecut=    60.00 Ry     beta= 0.40
     Davidson diagonalization with overlap
     ethr =  1.00E-02,  avg # of iterations =  2.0

     total cpu time spent up to now is     1983.2 secs

     total energy              =    -137.97592853 Ry
     estimated scf accuracy    <       3.00137795 Ry

     iteration #  5     ecut=    60.00 Ry     beta= 0.40
     Davidson diagonalization with overlap
     ethr =  6.52E-03,  avg # of iterations =  6.0

     total cpu time spent up to now is     2201.7 secs

     total energy              =    -142.67136901 Ry
     estimated scf accuracy    <      26.86214379 Ry

     iteration #  6     ecut=    60.00 Ry     beta= 0.40
     Davidson diagonalization with overlap
     ethr =  6.52E-03,  avg # of iterations =  7.7

     total cpu time spent up to now is     2400.4 secs

     total energy              =    -138.76147588 Ry
     estimated scf accuracy    <      50.58709955 Ry

     iteration #  7     ecut=    60.00 Ry     beta= 0.40
     Davidson diagonalization with overlap
     ethr =  6.52E-03,  avg # of iterations =  2.1

     total cpu time spent up to now is     2549.4 secs

     total energy              =    -129.30414522 Ry
     estimated scf accuracy    <      39.38999617 Ry

     iteration #  8     ecut=    60.00 Ry     beta= 0.40
     Davidson diagonalization with overlap
     ethr =  6.52E-03,  avg # of iterations =  7.1

     total cpu time spent up to now is     2868.1 secs

     total energy              =    -141.79015692 Ry
     estimated scf accuracy    <       9.14103641 Ry

     iteration #  9     ecut=    60.00 Ry     beta= 0.40
     Davidson diagonalization with overlap
     ethr =  6.52E-03,  avg # of iterations =  1.1

     total cpu time spent up to now is     3005.2 secs

     total energy              =    -138.95139757 Ry
     estimated scf accuracy    <       8.69378967 Ry

     iteration # 10     ecut=    60.00 Ry     beta= 0.40
     Davidson diagonalization with overlap
     ethr =  6.52E-03,  avg # of iterations =  2.0

     total cpu time spent up to now is     3166.2 secs

     total energy              =    -138.82510507 Ry
     estimated scf accuracy    <       2.89349124 Ry

     iteration # 11     ecut=    60.00 Ry     beta= 0.40
     Davidson diagonalization with overlap
     ethr =  6.29E-03,  avg # of iterations =  1.8

     total cpu time spent up to now is     3311.8 secs

     total energy              =    -139.03517593 Ry
     estimated scf accuracy    <       0.68684692 Ry

     iteration # 12     ecut=    60.00 Ry     beta= 0.40
     Davidson diagonalization with overlap
     ethr =  1.49E-03,  avg # of iterations =  2.0

     total cpu time spent up to now is     3465.6 secs

     total energy              =    -139.17697899 Ry
     estimated scf accuracy    <       1.05843024 Ry

     iteration # 13     ecut=    60.00 Ry     beta= 0.40
     Davidson diagonalization with overlap
     ethr =  1.49E-03,  avg # of iterations =  1.0

     total cpu time spent up to now is     3602.2 secs

     total energy              =    -138.66707019 Ry
     estimated scf accuracy    <       1.48485906 Ry

     iteration # 14     ecut=    60.00 Ry     beta= 0.40
     Davidson diagonalization with overlap
     ethr =  1.49E-03,  avg # of iterations =  5.4

     total cpu time spent up to now is     3808.0 secs

     total energy              =    -139.13025837 Ry
     estimated scf accuracy    <       5.57081272 Ry

     iteration # 15     ecut=    60.00 Ry     beta= 0.40
     Davidson diagonalization with overlap
     ethr =  1.49E-03,  avg # of iterations =  1.0

     total cpu time spent up to now is     3962.0 secs

     total energy              =    -138.98175170 Ry
     estimated scf accuracy    <       3.54158212 Ry

     iteration # 16     ecut=    60.00 Ry     beta= 0.40
     Davidson diagonalization with overlap
     ethr =  1.49E-03,  avg # of iterations =  1.2

     total cpu time spent up to now is     4095.2 secs

     total energy              =    -139.03269366 Ry
     estimated scf accuracy    <       0.89757754 Ry

     iteration # 17     ecut=    60.00 Ry     beta= 0.40
     Davidson diagonalization with overlap
     ethr =  1.49E-03,  avg # of iterations =  1.0

     total cpu time spent up to now is     4208.6 secs

     total energy              =    -138.90011769 Ry
     estimated scf accuracy    <       0.90848960 Ry

     iteration # 18     ecut=    60.00 Ry     beta= 0.40
     Davidson diagonalization with overlap
     ethr =  1.49E-03,  avg # of iterations =  3.5

     total cpu time spent up to now is     4354.6 secs

     total energy              =    -138.99920808 Ry
     estimated scf accuracy    <       0.02494325 Ry

     iteration # 19     ecut=    60.00 Ry     beta= 0.40
     Davidson diagonalization with overlap
     c_bands:  1 eigenvalues not converged
     c_bands:  1 eigenvalues not converged
     ethr =  5.42E-05,  avg # of iterations =  8.4

     total cpu time spent up to now is     4591.5 secs

     total energy              =    -139.01158032 Ry
     estimated scf accuracy    <       0.00138745 Ry

     iteration # 20     ecut=    60.00 Ry     beta= 0.40
     Davidson diagonalization with overlap
     c_bands:  2 eigenvalues not converged
     c_bands:  1 eigenvalues not converged
     c_bands:  1 eigenvalues not converged
     c_bands:  1 eigenvalues not converged
     c_bands:  1 eigenvalues not converged
     c_bands:  1 eigenvalues not converged
     c_bands:  1 eigenvalues not converged
     c_bands:  1 eigenvalues not converged
     c_bands:  1 eigenvalues not converged
     c_bands:  1 eigenvalues not converged
     c_bands:  1 eigenvalues not converged
     c_bands:  1 eigenvalues not converged
     c_bands:  2 eigenvalues not converged
     c_bands:  1 eigenvalues not converged
     c_bands:  1 eigenvalues not converged
     c_bands:  1 eigenvalues not converged
     c_bands:  1 eigenvalues not converged
     c_bands:  1 eigenvalues not converged
     c_bands:  2 eigenvalues not converged
     c_bands:  2 eigenvalues not converged
     c_bands:  1 eigenvalues not converged
     c_bands:  1 eigenvalues not converged
     c_bands:  2 eigenvalues not converged
     c_bands:  1 eigenvalues not converged
     c_bands:  2 eigenvalues not converged
     c_bands:  1 eigenvalues not converged
     c_bands:  2 eigenvalues not converged
     c_bands:  1 eigenvalues not converged
     c_bands:  1 eigenvalues not converged
     c_bands:  1 eigenvalues not converged
     c_bands:  1 eigenvalues not converged
     c_bands:  1 eigenvalues not converged
     c_bands:  1 eigenvalues not converged
     c_bands:  1 eigenvalues not converged
     c_bands:  1 eigenvalues not converged
     c_bands:  1 eigenvalues not converged
     ethr =  3.02E-06,  avg # of iterations = 12.3

     total cpu time spent up to now is     4935.5 secs

     total energy              =    -139.01635275 Ry
     estimated scf accuracy    <       0.01687843 Ry

     iteration # 21     ecut=    60.00 Ry     beta= 0.40
     Davidson diagonalization with overlap
     c_bands:  1 eigenvalues not converged
     c_bands:  1 eigenvalues not converged
     c_bands:  1 eigenvalues not converged
     c_bands:  1 eigenvalues not converged
     c_bands:  2 eigenvalues not converged
     c_bands:  1 eigenvalues not converged
     c_bands:  2 eigenvalues not converged
     ethr =  3.02E-06,  avg # of iterations =  7.6

     total cpu time spent up to now is     5157.3 secs

     total energy              =    -139.01587591 Ry
     estimated scf accuracy    <       0.08119867 Ry

     iteration # 22     ecut=    60.00 Ry     beta= 0.40
     Davidson diagonalization with overlap
     c_bands:  1 eigenvalues not converged
     ethr =  3.02E-06,  avg # of iterations =  2.9

     total cpu time spent up to now is     5298.9 secs

     total energy              =    -139.01264623 Ry
     estimated scf accuracy    <       0.05534432 Ry

     iteration # 23     ecut=    60.00 Ry     beta= 0.40
     Davidson diagonalization with overlap
     ethr =  3.02E-06,  avg # of iterations =  5.4

     total cpu time spent up to now is     5508.2 secs

     total energy              =    -139.01400247 Ry
     estimated scf accuracy    <       0.01566070 Ry

     iteration # 24     ecut=    60.00 Ry     beta= 0.40
     Davidson diagonalization with overlap
     ethr =  3.02E-06,  avg # of iterations =  1.0

     total cpu time spent up to now is     5646.9 secs

     total energy              =    -139.01032749 Ry
     estimated scf accuracy    <       0.01986191 Ry

     iteration # 25     ecut=    60.00 Ry     beta= 0.40
     Davidson diagonalization with overlap
     c_bands:  1 eigenvalues not converged
     c_bands:  1 eigenvalues not converged
     c_bands:  1 eigenvalues not converged
     ethr =  3.02E-06,  avg # of iterations =  8.4

     total cpu time spent up to now is     5943.6 secs

     total energy              =    -139.01269343 Ry
     estimated scf accuracy    <       0.00140833 Ry

     iteration # 26     ecut=    60.00 Ry     beta= 0.40
     Davidson diagonalization with overlap
     ethr =  3.02E-06,  avg # of iterations =  1.1

     total cpu time spent up to now is     6081.9 secs

     total energy              =    -139.01259428 Ry
     estimated scf accuracy    <       0.00123886 Ry

     iteration # 27     ecut=    60.00 Ry     beta= 0.40
     Davidson diagonalization with overlap
     ethr =  2.69E-06,  avg # of iterations =  1.2

     total cpu time spent up to now is     6225.4 secs

     total energy              =    -139.01259405 Ry
     estimated scf accuracy    <       0.00048532 Ry

     iteration # 28     ecut=    60.00 Ry     beta= 0.40
     Davidson diagonalization with overlap
     ethr =  1.06E-06,  avg # of iterations =  2.3

     total cpu time spent up to now is     6371.0 secs

     total energy              =    -139.01260505 Ry
     estimated scf accuracy    <       0.00008459 Ry

     iteration # 29     ecut=    60.00 Ry     beta= 0.40
     Davidson diagonalization with overlap
     ethr =  1.84E-07,  avg # of iterations =  6.2

     total cpu time spent up to now is     6570.4 secs

     total energy              =    -139.01262653 Ry
     estimated scf accuracy    <       0.00003177 Ry

     iteration # 30     ecut=    60.00 Ry     beta= 0.40
     Davidson diagonalization with overlap
     ethr =  6.91E-08,  avg # of iterations =  4.4

     total cpu time spent up to now is     6713.8 secs

     total energy              =    -139.01263197 Ry
     estimated scf accuracy    <       0.00000156 Ry

     iteration # 31     ecut=    60.00 Ry     beta= 0.40
     Davidson diagonalization with overlap
     ethr =  3.40E-09,  avg # of iterations =  8.0

     total cpu time spent up to now is     7016.5 secs

     total energy              =    -139.01263363 Ry
     estimated scf accuracy    <       0.00000387 Ry

     iteration # 32     ecut=    60.00 Ry     beta= 0.40
     Davidson diagonalization with overlap
     ethr =  3.40E-09,  avg # of iterations =  5.4

     total cpu time spent up to now is     7198.8 secs

     total energy              =    -139.01263393 Ry
     estimated scf accuracy    <       0.00000356 Ry

     iteration # 33     ecut=    60.00 Ry     beta= 0.40
     Davidson diagonalization with overlap
     ethr =  3.40E-09,  avg # of iterations =  1.3

     total cpu time spent up to now is     7349.6 secs

     total energy              =    -139.01263352 Ry
     estimated scf accuracy    <       0.00000170 Ry

     iteration # 34     ecut=    60.00 Ry     beta= 0.40
     Davidson diagonalization with overlap
     ethr =  3.40E-09,  avg # of iterations =  4.4

     total cpu time spent up to now is     7508.2 secs

     End of self-consistent calculation

     Number of k-points >= 100: set verbosity='high' to print the bands.

     the Fermi energy is     9.8114 ev

!    total energy              =    -139.01263380 Ry
     estimated scf accuracy    <       0.00000002 Ry
     smearing contrib. (-TS)   =      -0.02065475 Ry
     internal energy E=F+TS    =    -138.99197906 Ry

     The total energy is F=E-TS. E is the sum of the following terms:
     one-electron contribution =     -11.29577188 Ry
     hartree contribution      =      37.25634639 Ry
     xc contribution           =     -32.63003441 Ry
     ewald contribution        =    -132.32251916 Ry

     convergence has been achieved in  34 iterations

     Writing all to output data dir ./tmp/Zr6NiTe2.save/ :
     XML data file, charge density, pseudopotentials, collected wavefunctions

     init_run     :    323.62s CPU    331.37s WALL (       1 calls)
     electrons    :   6977.76s CPU   7176.82s WALL (       1 calls)

     Called by init_run:
     wfcinit      :    323.26s CPU    330.98s WALL (       1 calls)
     potinit      :      0.15s CPU      0.18s WALL (       1 calls)
     hinit0       :      0.07s CPU      0.08s WALL (       1 calls)

     Called by electrons:
     c_bands      :   6540.48s CPU   6714.91s WALL (      34 calls)
     sum_band     :    430.61s CPU    454.89s WALL (      34 calls)
     v_of_rho     :      5.01s CPU      5.23s WALL (      35 calls)
     mix_rho      :      1.17s CPU      1.24s WALL (      34 calls)

     Called by c_bands:
     init_us_2    :     90.81s CPU     91.36s WALL (   12627 calls)
     cegterg      :   6384.36s CPU   6556.85s WALL (    6222 calls)

     Called by *egterg:
     cdiaghg      :     48.64s CPU     49.76s WALL (   34207 calls)
     h_psi        :   4730.60s CPU   4886.09s WALL (   34390 calls)
     g_psi        :     12.88s CPU     13.01s WALL (   27985 calls)

     Called by h_psi:
     h_psi:calbec :   1316.68s CPU   1331.01s WALL (   34390 calls)
     vloc_psi     :   2420.87s CPU   2557.88s WALL (   34390 calls)
     add_vuspsi   :    975.66s CPU    978.89s WALL (   34390 calls)

     General routines
     calbec       :   1316.50s CPU   1330.86s WALL (   34390 calls)
     fft          :      3.28s CPU      3.55s WALL (     417 calls)
     ffts         :      0.23s CPU      0.25s WALL (      69 calls)
     fftw         :   2320.08s CPU   2452.96s WALL ( 1293016 calls)
     interpolate  :      0.47s CPU      0.51s WALL (      35 calls)

     Parallel routines

     PWSCF        :      2h 1m CPU      2h 5m WALL


   This run was terminated on:  17:34:29  19Aug2025            

=------------------------------------------------------------------------------=
   JOB DONE.
=------------------------------------------------------------------------------=
