
     Program BANDS v.7.4.1 starts on  6Aug2025 at 21:25: 0 

     This program is part of the open-source Quantum ESPRESSO suite
     for quantum simulation of materials; please cite
         "P. Giannozzi et al., J. Phys.:Condens. Matter 21 395502 (2009);
         "P. Giannozzi et al., J. Phys.:Condens. Matter 29 465901 (2017);
         "P. Giannozzi et al., J. Chem. Phys. 152 154105 (2020);
          URL http://www.quantum-espresso.org", 
     in publications or presentations arising from this work. More details at
     http://www.quantum-espresso.org/quote

     Parallel version (MPI), running on     2 processors

     MPI processes distributed on     1 nodes
     R & G space division:  proc/nbgrp/npool/nimage =       2
     8460 MiB available memory on the printing compute node when the environment starts


     Reading xml data from directory:

     ./tmp/Zr6NiTe2.save/
     file Ni.pbe-nd-rrkjus.upf: wavefunction(s)  4S renormalized

     IMPORTANT: XC functional enforced from input :
     Exchange-correlation= PBE
                           (   1   4   3   4   0   0   0)
     Any further DFT definition will be discarded
     Please, verify this is what you really want


     Parallelization info
     --------------------
     sticks:   dense  smooth     PW     G-vecs:    dense   smooth      PW
     Min        2658    1767    507                75267    40916    6252
     Max        2659    1768    508                75268    40917    6253
     Sum        5317    3535   1015               150535    81833   12505

     Using Slab Decomposition


     Check: negative core charge=   -0.000002

     negative rho (up, down):  3.714E-01 0.000E+00
     Reading collected, re-writing distributed wavefunctions
     high-symmetry point:  0.0000 0.0000 0.0000   x coordinate   0.0000
     high-symmetry point:  0.5000 0.2887 0.0000   x coordinate   0.5774
     high-symmetry point:  0.6667 0.0000 0.0000   x coordinate   0.9107
     high-symmetry point:  0.0000 0.0000 0.0000   x coordinate   1.5774
     high-symmetry point:  0.0000 0.0000 1.0361   x coordinate   2.6134
     high-symmetry point:  0.5000 0.2887 1.0361   x coordinate   3.1908
     high-symmetry point:  0.6667 0.0000 1.0361   x coordinate   3.5241
     high-symmetry point:  0.0000 0.0000 1.0361   x coordinate   4.1908
     high-symmetry point:  0.5000 0.2887 1.0361   x coordinate   4.1908
     high-symmetry point:  0.5000 0.2887 0.0000   x coordinate   5.2269
     high-symmetry point:  0.6667 0.0000 0.0000   x coordinate   5.2269
     high-symmetry point:  0.6667 0.0000 1.0361   x coordinate   6.2630

     Plottable bands (eV) written to file Zr6NiTe2.dat.gnu
     Bands written to file Zr6NiTe2.dat

 **************************************************************************

                    xk=(   0.00000,   0.00000,   0.00000  )

     point group C_s (m)    
     there are  2 classes
     the character table:

       E     s    
A'     1.00  1.00
A''    1.00 -1.00

     the symmetry operations in each class and the name of the first element:

     E        1
                                                                 
     s        2
                                                                 

     Band symmetry, C_s (m)     point group:

     e(  1 -  1) =    -35.20407  eV     1   --> A'             
     e(  2 -  2) =    -35.19642  eV     1   --> A''            
     e(  3 -  3) =    -35.18722  eV     1   --> A'             
     e(  4 -  4) =    -34.84494  eV     1   --> A'             
     e(  5 -  5) =    -34.81634  eV     1   --> A'             
     e(  6 -  6) =    -34.80727  eV     1   --> A''            
     e(  7 -  7) =    -13.51180  eV     1   --> A''            
     e(  8 -  8) =    -13.39513  eV     1   --> A'             
     e(  9 -  9) =    -13.39129  eV     1   --> A''            
     e( 10 - 10) =    -13.30199  eV     1   --> A'             
     e( 11 - 11) =    -13.24694  eV     1   --> A'             
     e( 12 - 12) =    -13.21720  eV     1   --> A''            
     e( 13 - 13) =    -13.21539  eV     1   --> A'             
     e( 14 - 14) =    -13.20175  eV     1   --> A''            
     e( 15 - 15) =    -13.19623  eV     1   --> A'             
     e( 16 - 16) =    -12.98450  eV     1   --> A'             
     e( 17 - 17) =    -12.98328  eV     1   --> A''            
     e( 18 - 18) =    -12.95164  eV     1   --> A'             
     e( 19 - 19) =    -12.81046  eV     1   --> A''            
     e( 20 - 20) =    -12.73844  eV     1   --> A'             
     e( 21 - 21) =    -12.72704  eV     1   --> A'             
     e( 22 - 22) =    -12.72639  eV     1   --> A''            
     e( 23 - 23) =    -12.72082  eV     1   --> A'             
     e( 24 - 24) =    -12.71668  eV     1   --> A''            
     e( 25 - 25) =      0.64785  eV     1   --> A'             
     e( 26 - 26) =      1.29874  eV     1   --> A''            
     e( 27 - 27) =      7.98991  eV     1   --> A'             
     e( 28 - 28) =      8.00412  eV     1   --> A''            
     e( 29 - 29) =      9.18872  eV     1   --> A'             
     e( 30 - 30) =      9.31455  eV     1   --> A'             
     e( 31 - 31) =      9.33595  eV     1   --> A''            
     e( 32 - 32) =     10.56047  eV     1   --> A''            
     e( 33 - 33) =     10.58876  eV     1   --> A'             
     e( 34 - 34) =     11.33450  eV     1   --> A''            
     e( 35 - 35) =     11.34273  eV     1   --> A'             
     e( 36 - 36) =     11.39023  eV     1   --> A'             
     e( 37 - 37) =     11.39238  eV     1   --> A''            
     e( 38 - 38) =     11.44403  eV     1   --> A'             
     e( 39 - 39) =     11.44821  eV     1   --> A''            
     e( 40 - 40) =     11.65673  eV     1   --> A'             
     e( 41 - 41) =     11.83212  eV     1   --> A'             
     e( 42 - 42) =     13.28968  eV     1   --> A'             
     e( 43 - 43) =     13.29429  eV     1   --> A''            
     e( 44 - 44) =     14.04057  eV     1   --> A'             
     e( 45 - 45) =     14.05430  eV     1   --> A'             
     e( 46 - 46) =     14.07286  eV     1   --> A''            
     e( 47 - 47) =     14.11120  eV     1   --> A'             
     e( 48 - 48) =     14.11666  eV     1   --> A''            
     e( 49 - 49) =     14.20980  eV     1   --> A'             
     e( 50 - 50) =     14.72136  eV     1   --> A''            
     e( 51 - 51) =     14.74396  eV     1   --> A'             
     e( 52 - 52) =     15.09368  eV     1   --> A'             
     e( 53 - 53) =     15.09675  eV     1   --> A''            
     e( 54 - 54) =     15.17687  eV     1   --> A'             
     e( 55 - 55) =     15.27152  eV     1   --> A''            
     e( 56 - 56) =     15.76581  eV     1   --> A'             
     e( 57 - 57) =     15.76983  eV     1   --> A''            
     e( 58 - 58) =     16.13678  eV     1   --> A'             
     e( 59 - 59) =     16.14804  eV     1   --> A'             
     e( 60 - 60) =     16.15605  eV     1   --> A''            
     e( 61 - 61) =     16.61289  eV     1   --> A'             
     e( 62 - 62) =     16.77648  eV     1   --> A''            
     e( 63 - 63) =     16.78429  eV     1   --> A'             
     e( 64 - 64) =     17.16050  eV     1   --> A''            
     e( 65 - 65) =     17.20052  eV     1   --> A''            
     e( 66 - 66) =     17.20203  eV     1   --> A'             
     e( 67 - 67) =     18.01369  eV     1   --> A'             
     e( 68 - 68) =     18.02885  eV     1   --> A''            
     e( 69 - 69) =     18.04663  eV     1   --> A''            
     e( 70 - 70) =     18.10038  eV     1   --> A'             
     e( 71 - 71) =     18.11456  eV     1   --> A''            
     e( 72 - 72) =     19.11498  eV     1   --> A''            
     e( 73 - 73) =     21.22756  eV     1   --> A''            
     e( 74 - 74) =     21.25127  eV     1   --> A'             
     e( 75 - 75) =     21.35838  eV     1   --> A'             
     e( 76 - 76) =     21.95323  eV     1   --> A'             
     e( 77 - 77) =     22.66052  eV     1   --> A'             
     e( 78 - 78) =     22.66220  eV     1   --> A''            
     e( 79 - 79) =     22.74377  eV     1   --> A''            
     e( 80 - 80) =     23.46006  eV     1   --> A'             
     e( 81 - 81) =     23.47670  eV     1   --> A''            
     e( 82 - 83) =     23.66779  eV     2   --> A'             
     e( 82 - 83) =     23.66779  eV     2   --> A''            
     e( 84 - 84) =     24.15062  eV     1   --> A'             
     e( 85 - 85) =     24.32479  eV     1   --> A''            
     e( 86 - 86) =     24.33057  eV     1   --> A'             
     e( 87 - 87) =     25.61578  eV     1   --> A'             
     e( 88 - 88) =     26.08308  eV     1   --> A'             
     e( 89 - 89) =     26.12315  eV     1   --> A''            
     e( 90 - 90) =     26.43537  eV     1   --> A'             
     e( 91 - 91) =     26.44473  eV     1   --> A''            
     e( 92 - 92) =     26.68275  eV     1   --> A''            
     e( 93 - 93) =     26.68546  eV     1   --> A'             
     e( 94 - 94) =     26.89098  eV     1   --> A''            
     e( 95 - 95) =     26.90838  eV     1   --> A'             

 **************************************************************************

 **************************************************************************

                    xk=(   0.02500,   0.01443,   0.00000  )

     point group C_1 (1)    
     there are  1 classes
     the character table:

       E    
A      1.00

     the symmetry operations in each class and the name of the first element:

     E        1
                                                                 

     Band symmetry, C_1 (1)     point group:

     e(  1 -  1) =    -35.20405  eV     1   --> A              
     e(  2 -  2) =    -35.19643  eV     1   --> A              
     e(  3 -  3) =    -35.18723  eV     1   --> A              
     e(  4 -  4) =    -34.84497  eV     1   --> A              
     e(  5 -  5) =    -34.81633  eV     1   --> A              
     e(  6 -  6) =    -34.80726  eV     1   --> A              
     e(  7 -  7) =    -13.51162  eV     1   --> A              
     e(  8 -  8) =    -13.39533  eV     1   --> A              
     e(  9 -  9) =    -13.39145  eV     1   --> A              
     e( 10 - 10) =    -13.30216  eV     1   --> A              
     e( 11 - 11) =    -13.24685  eV     1   --> A              
     e( 12 - 12) =    -13.21711  eV     1   --> A              
     e( 13 - 13) =    -13.21488  eV     1   --> A              
     e( 14 - 14) =    -13.20179  eV     1   --> A              
     e( 15 - 15) =    -13.19627  eV     1   --> A              
     e( 16 - 16) =    -12.98769  eV     1   --> A              
     e( 17 - 17) =    -12.98323  eV     1   --> A              
     e( 18 - 18) =    -12.94827  eV     1   --> A              
     e( 19 - 19) =    -12.81053  eV     1   --> A              
     e( 20 - 20) =    -12.73864  eV     1   --> A              
     e( 21 - 21) =    -12.72736  eV     1   --> A              
     e( 22 - 22) =    -12.72588  eV     1   --> A              
     e( 23 - 23) =    -12.72112  eV     1   --> A              
     e( 24 - 24) =    -12.71680  eV     1   --> A              
     e( 25 - 25) =      0.64878  eV     1   --> A              
     e( 26 - 26) =      1.29781  eV     1   --> A              
     e( 27 - 27) =      7.98879  eV     1   --> A              
     e( 28 - 28) =      8.00450  eV     1   --> A              
     e( 29 - 29) =      9.15676  eV     1   --> A              
     e( 30 - 30) =      9.32786  eV     1   --> A              
     e( 31 - 31) =      9.35498  eV     1   --> A              
     e( 32 - 32) =     10.56166  eV     1   --> A              
     e( 33 - 33) =     10.58945  eV     1   --> A              
     e( 34 - 34) =     11.33094  eV     1   --> A              
     e( 35 - 35) =     11.33915  eV     1   --> A              
     e( 36 - 36) =     11.38902  eV     1   --> A              
     e( 37 - 37) =     11.39219  eV     1   --> A              
     e( 38 - 38) =     11.44925  eV     1   --> A              
     e( 39 - 39) =     11.45551  eV     1   --> A              
     e( 40 - 40) =     11.65673  eV     1   --> A              
     e( 41 - 41) =     11.83465  eV     1   --> A              
     e( 42 - 42) =     13.27946  eV     1   --> A              
     e( 43 - 43) =     13.28674  eV     1   --> A              
     e( 44 - 44) =     14.04208  eV     1   --> A              
     e( 45 - 45) =     14.04435  eV     1   --> A              
     e( 46 - 46) =     14.06980  eV     1   --> A              
     e( 47 - 47) =     14.11804  eV     1   --> A              
     e( 48 - 48) =     14.12287  eV     1   --> A              
     e( 49 - 49) =     14.22225  eV     1   --> A              
     e( 50 - 50) =     14.72281  eV     1   --> A              
     e( 51 - 51) =     14.74891  eV     1   --> A              
     e( 52 - 52) =     15.09215  eV     1   --> A              
     e( 53 - 53) =     15.09743  eV     1   --> A              
     e( 54 - 54) =     15.17527  eV     1   --> A              
     e( 55 - 55) =     15.27098  eV     1   --> A              
     e( 56 - 56) =     15.76228  eV     1   --> A              
     e( 57 - 57) =     15.76645  eV     1   --> A              
     e( 58 - 58) =     16.13363  eV     1   --> A              
     e( 59 - 59) =     16.14001  eV     1   --> A              
     e( 60 - 60) =     16.15477  eV     1   --> A              
     e( 61 - 61) =     16.60779  eV     1   --> A              
     e( 62 - 62) =     16.77620  eV     1   --> A              
     e( 63 - 63) =     16.80161  eV     1   --> A              
     e( 64 - 64) =     17.15461  eV     1   --> A              
     e( 65 - 65) =     17.18954  eV     1   --> A              
     e( 66 - 66) =     17.20029  eV     1   --> A              
     e( 67 - 67) =     18.01880  eV     1   --> A              
     e( 68 - 68) =     18.03474  eV     1   --> A              
     e( 69 - 69) =     18.06894  eV     1   --> A              
     e( 70 - 70) =     18.09869  eV     1   --> A              
     e( 71 - 71) =     18.11543  eV     1   --> A              
     e( 72 - 72) =     19.10954  eV     1   --> A              
     e( 73 - 73) =     21.22512  eV     1   --> A              
     e( 74 - 74) =     21.24738  eV     1   --> A              
     e( 75 - 75) =     21.35190  eV     1   --> A              
     e( 76 - 76) =     21.95192  eV     1   --> A              
     e( 77 - 77) =     22.61347  eV     1   --> A              
     e( 78 - 78) =     22.66741  eV     1   --> A              
     e( 79 - 79) =     22.78186  eV     1   --> A              
     e( 80 - 80) =     23.46065  eV     1   --> A              
     e( 81 - 81) =     23.47846  eV     1   --> A              
     e( 82 - 82) =     23.65955  eV     1   --> A              
     e( 83 - 83) =     23.66713  eV     1   --> A              
     e( 84 - 84) =     24.15035  eV     1   --> A              
     e( 85 - 85) =     24.33017  eV     1   --> A              
     e( 86 - 86) =     24.34092  eV     1   --> A              
     e( 87 - 87) =     25.62343  eV     1   --> A              
     e( 88 - 88) =     26.05471  eV     1   --> A              
     e( 89 - 89) =     26.09417  eV     1   --> A              
     e( 90 - 90) =     26.47144  eV     1   --> A              
     e( 91 - 91) =     26.48215  eV     1   --> A              
     e( 92 - 92) =     26.64553  eV     1   --> A              
     e( 93 - 93) =     26.65970  eV     1   --> A              
     e( 94 - 94) =     26.85432  eV     1   --> A              
     e( 95 - 95) =     26.86973  eV     1   --> A              

 **************************************************************************

 **************************************************************************

                    xk=(   0.05000,   0.02887,   0.00000  )

     Band symmetry, C_1 (1)     point group:

     e(  1 -  1) =    -35.20401  eV     1   --> A              
     e(  2 -  2) =    -35.19646  eV     1   --> A              
     e(  3 -  3) =    -35.18724  eV     1   --> A              
     e(  4 -  4) =    -34.84504  eV     1   --> A              
     e(  5 -  5) =    -34.81628  eV     1   --> A              
     e(  6 -  6) =    -34.80724  eV     1   --> A              
     e(  7 -  7) =    -13.51109  eV     1   --> A              
     e(  8 -  8) =    -13.39594  eV     1   --> A              
     e(  9 -  9) =    -13.39193  eV     1   --> A              
     e( 10 - 10) =    -13.30261  eV     1   --> A              
     e( 11 - 11) =    -13.24661  eV     1   --> A              
     e( 12 - 12) =    -13.21710  eV     1   --> A              
     e( 13 - 13) =    -13.21316  eV     1   --> A              
     e( 14 - 14) =    -13.20193  eV     1   --> A              
     e( 15 - 15) =    -13.19638  eV     1   --> A              
     e( 16 - 16) =    -12.99535  eV     1   --> A              
     e( 17 - 17) =    -12.98251  eV     1   --> A              
     e( 18 - 18) =    -12.94058  eV     1   --> A              
     e( 19 - 19) =    -12.81073  eV     1   --> A              
     e( 20 - 20) =    -12.73922  eV     1   --> A              
     e( 21 - 21) =    -12.72769  eV     1   --> A              
     e( 22 - 22) =    -12.72504  eV     1   --> A              
     e( 23 - 23) =    -12.72203  eV     1   --> A              
     e( 24 - 24) =    -12.71711  eV     1   --> A              
     e( 25 - 25) =      0.65158  eV     1   --> A              
     e( 26 - 26) =      1.29504  eV     1   --> A              
     e( 27 - 27) =      7.98471  eV     1   --> A              
     e( 28 - 28) =      8.00623  eV     1   --> A              
     e( 29 - 29) =      9.09705  eV     1   --> A              
     e( 30 - 30) =      9.33048  eV     1   --> A              
     e( 31 - 31) =      9.41333  eV     1   --> A              
     e( 32 - 32) =     10.56524  eV     1   --> A              
     e( 33 - 33) =     10.59148  eV     1   --> A              
     e( 34 - 34) =     11.32181  eV     1   --> A              
     e( 35 - 35) =     11.33075  eV     1   --> A              
     e( 36 - 36) =     11.38500  eV     1   --> A              
     e( 37 - 37) =     11.39214  eV     1   --> A              
     e( 38 - 38) =     11.46200  eV     1   --> A              
     e( 39 - 39) =     11.47617  eV     1   --> A              
     e( 40 - 40) =     11.65662  eV     1   --> A              
     e( 41 - 41) =     11.84224  eV     1   --> A              
     e( 42 - 42) =     13.24934  eV     1   --> A              
     e( 43 - 43) =     13.26608  eV     1   --> A              
     e( 44 - 44) =     14.01126  eV     1   --> A              
     e( 45 - 45) =     14.05210  eV     1   --> A              
     e( 46 - 46) =     14.06608  eV     1   --> A              
     e( 47 - 47) =     14.13503  eV     1   --> A              
     e( 48 - 48) =     14.14391  eV     1   --> A              
     e( 49 - 49) =     14.25083  eV     1   --> A              
     e( 50 - 50) =     14.72514  eV     1   --> A              
     e( 51 - 51) =     14.76509  eV     1   --> A              
     e( 52 - 52) =     15.08671  eV     1   --> A              
     e( 53 - 53) =     15.09986  eV     1   --> A              
     e( 54 - 54) =     15.17083  eV     1   --> A              
     e( 55 - 55) =     15.26949  eV     1   --> A              
     e( 56 - 56) =     15.74729  eV     1   --> A              
     e( 57 - 57) =     15.76122  eV     1   --> A              
     e( 58 - 58) =     16.09138  eV     1   --> A              
     e( 59 - 59) =     16.14929  eV     1   --> A              
     e( 60 - 60) =     16.15501  eV     1   --> A              
     e( 61 - 61) =     16.59270  eV     1   --> A              
     e( 62 - 62) =     16.77557  eV     1   --> A              
     e( 63 - 63) =     16.84884  eV     1   --> A              
     e( 64 - 64) =     17.12993  eV     1   --> A              
     e( 65 - 65) =     17.15781  eV     1   --> A              
     e( 66 - 66) =     17.20619  eV     1   --> A              
     e( 67 - 67) =     18.02437  eV     1   --> A              
     e( 68 - 68) =     18.06850  eV     1   --> A              
     e( 69 - 69) =     18.09210  eV     1   --> A              
     e( 70 - 70) =     18.11836  eV     1   --> A              
     e( 71 - 71) =     18.12478  eV     1   --> A              
     e( 72 - 72) =     19.09334  eV     1   --> A              
     e( 73 - 73) =     21.21488  eV     1   --> A              
     e( 74 - 74) =     21.23670  eV     1   --> A              
     e( 75 - 75) =     21.33521  eV     1   --> A              
     e( 76 - 76) =     21.94814  eV     1   --> A              
     e( 77 - 77) =     22.53709  eV     1   --> A              
     e( 78 - 78) =     22.67489  eV     1   --> A              
     e( 79 - 79) =     22.83945  eV     1   --> A              
     e( 80 - 80) =     23.46155  eV     1   --> A              
     e( 81 - 81) =     23.48421  eV     1   --> A              
     e( 82 - 82) =     23.63731  eV     1   --> A              
     e( 83 - 83) =     23.66335  eV     1   --> A              
     e( 84 - 84) =     24.14960  eV     1   --> A              
     e( 85 - 85) =     24.33574  eV     1   --> A              
     e( 86 - 86) =     24.38144  eV     1   --> A              
     e( 87 - 87) =     25.64513  eV     1   --> A              
     e( 88 - 88) =     25.99085  eV     1   --> A              
     e( 89 - 89) =     26.03269  eV     1   --> A              
     e( 90 - 90) =     26.55181  eV     1   --> A              
     e( 91 - 91) =     26.55590  eV     1   --> A              
     e( 92 - 92) =     26.57237  eV     1   --> A              
     e( 93 - 93) =     26.57666  eV     1   --> A              
     e( 94 - 94) =     26.80453  eV     1   --> A              
     e( 95 - 95) =     26.81617  eV     1   --> A              

 **************************************************************************

 **************************************************************************

                    xk=(   0.07500,   0.04330,   0.00000  )

     Band symmetry, C_1 (1)     point group:

     e(  1 -  1) =    -35.20393  eV     1   --> A              
     e(  2 -  2) =    -35.19650  eV     1   --> A              
     e(  3 -  3) =    -35.18726  eV     1   --> A              
     e(  4 -  4) =    -34.84516  eV     1   --> A              
     e(  5 -  5) =    -34.81621  eV     1   --> A              
     e(  6 -  6) =    -34.80720  eV     1   --> A              
     e(  7 -  7) =    -13.51020  eV     1   --> A              
     e(  8 -  8) =    -13.39696  eV     1   --> A              
     e(  9 -  9) =    -13.39269  eV     1   --> A              
     e( 10 - 10) =    -13.30325  eV     1   --> A              
     e( 11 - 11) =    -13.24620  eV     1   --> A              
     e( 12 - 12) =    -13.21729  eV     1   --> A              
     e( 13 - 13) =    -13.21024  eV     1   --> A              
     e( 14 - 14) =    -13.20215  eV     1   --> A              
     e( 15 - 15) =    -13.19658  eV     1   --> A              
     e( 16 - 16) =    -13.00461  eV     1   --> A              
     e( 17 - 17) =    -12.98126  eV     1   --> A              
     e( 18 - 18) =    -12.93133  eV     1   --> A              
     e( 19 - 19) =    -12.81107  eV     1   --> A              
     e( 20 - 20) =    -12.74012  eV     1   --> A              
     e( 21 - 21) =    -12.72786  eV     1   --> A              
     e( 22 - 22) =    -12.72453  eV     1   --> A              
     e( 23 - 23) =    -12.72319  eV     1   --> A              
     e( 24 - 24) =    -12.71754  eV     1   --> A              
     e( 25 - 25) =      0.65621  eV     1   --> A              
     e( 26 - 26) =      1.29046  eV     1   --> A              
     e( 27 - 27) =      7.97708  eV     1   --> A              
     e( 28 - 28) =      8.00973  eV     1   --> A              
     e( 29 - 29) =      9.03341  eV     1   --> A              
     e( 30 - 30) =      9.33138  eV     1   --> A              
     e( 31 - 31) =      9.47848  eV     1   --> A              
     e( 32 - 32) =     10.57117  eV     1   --> A              
     e( 33 - 33) =     10.59477  eV     1   --> A              
     e( 34 - 34) =     11.30972  eV     1   --> A              
     e( 35 - 35) =     11.32125  eV     1   --> A              
     e( 36 - 36) =     11.37829  eV     1   --> A              
     e( 37 - 37) =     11.39235  eV     1   --> A              
     e( 38 - 38) =     11.47932  eV     1   --> A              
     e( 39 - 39) =     11.50631  eV     1   --> A              
     e( 40 - 40) =     11.65618  eV     1   --> A              
     e( 41 - 41) =     11.85494  eV     1   --> A              
     e( 42 - 42) =     13.20362  eV     1   --> A              
     e( 43 - 43) =     13.23428  eV     1   --> A              
     e( 44 - 44) =     13.97118  eV     1   --> A              
     e( 45 - 45) =     14.06131  eV     1   --> A              
     e( 46 - 46) =     14.06480  eV     1   --> A              
     e( 47 - 47) =     14.15930  eV     1   --> A              
     e( 48 - 48) =     14.17782  eV     1   --> A              
     e( 49 - 49) =     14.28518  eV     1   --> A              
     e( 50 - 50) =     14.72687  eV     1   --> A              
     e( 51 - 51) =     14.79200  eV     1   --> A              
     e( 52 - 52) =     15.07639  eV     1   --> A              
     e( 53 - 53) =     15.10369  eV     1   --> A              
     e( 54 - 54) =     15.16458  eV     1   --> A              
     e( 55 - 55) =     15.26752  eV     1   --> A              
     e( 56 - 56) =     15.72257  eV     1   --> A              
     e( 57 - 57) =     15.75390  eV     1   --> A              
     e( 58 - 58) =     16.03113  eV     1   --> A              
     e( 59 - 59) =     16.15660  eV     1   --> A              
     e( 60 - 60) =     16.16451  eV     1   --> A              
     e( 61 - 61) =     16.56824  eV     1   --> A              
     e( 62 - 62) =     16.77478  eV     1   --> A              
     e( 63 - 63) =     16.91667  eV     1   --> A              
     e( 64 - 64) =     17.08824  eV     1   --> A              
     e( 65 - 65) =     17.11196  eV     1   --> A              
     e( 66 - 66) =     17.22311  eV     1   --> A              
     e( 67 - 67) =     18.03331  eV     1   --> A              
     e( 68 - 68) =     18.07998  eV     1   --> A              
     e( 69 - 69) =     18.12113  eV     1   --> A              
     e( 70 - 70) =     18.12773  eV     1   --> A              
     e( 71 - 71) =     18.20279  eV     1   --> A              
     e( 72 - 72) =     19.06665  eV     1   --> A              
     e( 73 - 73) =     21.18647  eV     1   --> A              
     e( 74 - 74) =     21.22610  eV     1   --> A              
     e( 75 - 75) =     21.31382  eV     1   --> A              
     e( 76 - 76) =     21.94233  eV     1   --> A              
     e( 77 - 77) =     22.45616  eV     1   --> A              
     e( 78 - 78) =     22.67900  eV     1   --> A              
     e( 79 - 79) =     22.89714  eV     1   --> A              
     e( 80 - 80) =     23.46073  eV     1   --> A              
     e( 81 - 81) =     23.49477  eV     1   --> A              
     e( 82 - 82) =     23.60497  eV     1   --> A              
     e( 83 - 83) =     23.65518  eV     1   --> A              
     e( 84 - 84) =     24.14899  eV     1   --> A              
     e( 85 - 85) =     24.34342  eV     1   --> A              
     e( 86 - 86) =     24.44681  eV     1   --> A              
     e( 87 - 87) =     25.67682  eV     1   --> A              
     e( 88 - 88) =     25.91262  eV     1   --> A              
     e( 89 - 89) =     25.97221  eV     1   --> A              
     e( 90 - 90) =     26.42730  eV     1   --> A              
     e( 91 - 91) =     26.46695  eV     1   --> A              
     e( 92 - 92) =     26.65149  eV     1   --> A              
     e( 93 - 93) =     26.69161  eV     1   --> A              
     e( 94 - 94) =     26.76286  eV     1   --> A              
     e( 95 - 95) =     26.77717  eV     1   --> A              

 **************************************************************************

 **************************************************************************

                    xk=(   0.10000,   0.05774,   0.00000  )

     Band symmetry, C_1 (1)     point group:

     e(  1 -  1) =    -35.20383  eV     1   --> A              
     e(  2 -  2) =    -35.19657  eV     1   --> A              
     e(  3 -  3) =    -35.18730  eV     1   --> A              
     e(  4 -  4) =    -34.84532  eV     1   --> A              
     e(  5 -  5) =    -34.81612  eV     1   --> A              
     e(  6 -  6) =    -34.80714  eV     1   --> A              
     e(  7 -  7) =    -13.50898  eV     1   --> A              
     e(  8 -  8) =    -13.39837  eV     1   --> A              
     e(  9 -  9) =    -13.39372  eV     1   --> A              
     e( 10 - 10) =    -13.30396  eV     1   --> A              
     e( 11 - 11) =    -13.24563  eV     1   --> A              
     e( 12 - 12) =    -13.21766  eV     1   --> A              
     e( 13 - 13) =    -13.20636  eV     1   --> A              
     e( 14 - 14) =    -13.20246  eV     1   --> A              
     e( 15 - 15) =    -13.19683  eV     1   --> A              
     e( 16 - 16) =    -13.01435  eV     1   --> A              
     e( 17 - 17) =    -12.97948  eV     1   --> A              
     e( 18 - 18) =    -12.92159  eV     1   --> A              
     e( 19 - 19) =    -12.81153  eV     1   --> A              
     e( 20 - 20) =    -12.74124  eV     1   --> A              
     e( 21 - 21) =    -12.72798  eV     1   --> A              
     e( 22 - 22) =    -12.72629  eV     1   --> A              
     e( 23 - 23) =    -12.72266  eV     1   --> A              
     e( 24 - 24) =    -12.71803  eV     1   --> A              
     e( 25 - 25) =      0.66263  eV     1   --> A              
     e( 26 - 26) =      1.28412  eV     1   --> A              
     e( 27 - 27) =      7.96615  eV     1   --> A              
     e( 28 - 28) =      8.01436  eV     1   --> A              
     e( 29 - 29) =      8.97172  eV     1   --> A              
     e( 30 - 30) =      9.33217  eV     1   --> A              
     e( 31 - 31) =      9.54341  eV     1   --> A              
     e( 32 - 32) =     10.57941  eV     1   --> A              
     e( 33 - 33) =     10.59922  eV     1   --> A              
     e( 34 - 34) =     11.29641  eV     1   --> A              
     e( 35 - 35) =     11.31278  eV     1   --> A              
     e( 36 - 36) =     11.36922  eV     1   --> A              
     e( 37 - 37) =     11.39277  eV     1   --> A              
     e( 38 - 38) =     11.49923  eV     1   --> A              
     e( 39 - 39) =     11.54325  eV     1   --> A              
     e( 40 - 40) =     11.65511  eV     1   --> A              
     e( 41 - 41) =     11.87276  eV     1   --> A              
     e( 42 - 42) =     13.14747  eV     1   --> A              
     e( 43 - 43) =     13.19360  eV     1   --> A              
     e( 44 - 44) =     13.92861  eV     1   --> A              
     e( 45 - 45) =     14.05754  eV     1   --> A              
     e( 46 - 46) =     14.07888  eV     1   --> A              
     e( 47 - 47) =     14.18952  eV     1   --> A              
     e( 48 - 48) =     14.21851  eV     1   --> A              
     e( 49 - 49) =     14.32121  eV     1   --> A              
     e( 50 - 50) =     14.72828  eV     1   --> A              
     e( 51 - 51) =     14.82650  eV     1   --> A              
     e( 52 - 52) =     15.06015  eV     1   --> A              
     e( 53 - 53) =     15.10813  eV     1   --> A              
     e( 54 - 54) =     15.15784  eV     1   --> A              
     e( 55 - 55) =     15.26571  eV     1   --> A              
     e( 56 - 56) =     15.69078  eV     1   --> A              
     e( 57 - 57) =     15.74414  eV     1   --> A              
     e( 58 - 58) =     15.96123  eV     1   --> A              
     e( 59 - 59) =     16.16026  eV     1   --> A              
     e( 60 - 60) =     16.18503  eV     1   --> A              
     e( 61 - 61) =     16.53572  eV     1   --> A              
     e( 62 - 62) =     16.77414  eV     1   --> A              
     e( 63 - 63) =     16.99672  eV     1   --> A              
     e( 64 - 64) =     17.03306  eV     1   --> A              
     e( 65 - 65) =     17.06474  eV     1   --> A              
     e( 66 - 66) =     17.24652  eV     1   --> A              
     e( 67 - 67) =     18.04620  eV     1   --> A              
     e( 68 - 68) =     18.06246  eV     1   --> A              
     e( 69 - 69) =     18.13619  eV     1   --> A              
     e( 70 - 70) =     18.18951  eV     1   --> A              
     e( 71 - 71) =     18.29809  eV     1   --> A              
     e( 72 - 72) =     19.02998  eV     1   --> A              
     e( 73 - 73) =     21.13865  eV     1   --> A              
     e( 74 - 74) =     21.21656  eV     1   --> A              
     e( 75 - 75) =     21.29018  eV     1   --> A              
     e( 76 - 76) =     21.93512  eV     1   --> A              
     e( 77 - 77) =     22.37878  eV     1   --> A              
     e( 78 - 78) =     22.67207  eV     1   --> A              
     e( 79 - 79) =     22.95383  eV     1   --> A              
     e( 80 - 80) =     23.45616  eV     1   --> A              
     e( 81 - 81) =     23.51041  eV     1   --> A              
     e( 82 - 82) =     23.56745  eV     1   --> A              
     e( 83 - 83) =     23.64223  eV     1   --> A              
     e( 84 - 84) =     24.15033  eV     1   --> A              
     e( 85 - 85) =     24.35193  eV     1   --> A              
     e( 86 - 86) =     24.53256  eV     1   --> A              
     e( 87 - 87) =     25.71045  eV     1   --> A              
     e( 88 - 88) =     25.82965  eV     1   --> A              
     e( 89 - 89) =     25.92663  eV     1   --> A              
     e( 90 - 90) =     26.29108  eV     1   --> A              
     e( 91 - 91) =     26.35728  eV     1   --> A              
     e( 92 - 92) =     26.70575  eV     1   --> A              
     e( 93 - 93) =     26.73638  eV     1   --> A              
     e( 94 - 94) =     26.77195  eV     1   --> A              
     e( 95 - 95) =     26.83749  eV     1   --> A              

 **************************************************************************

 **************************************************************************

                    xk=(   0.12500,   0.07217,   0.00000  )

     Band symmetry, C_1 (1)     point group:

     e(  1 -  1) =    -35.20370  eV     1   --> A              
     e(  2 -  2) =    -35.19665  eV     1   --> A              
     e(  3 -  3) =    -35.18733  eV     1   --> A              
     e(  4 -  4) =    -34.84552  eV     1   --> A              
     e(  5 -  5) =    -34.81600  eV     1   --> A              
     e(  6 -  6) =    -34.80707  eV     1   --> A              
     e(  7 -  7) =    -13.50742  eV     1   --> A              
     e(  8 -  8) =    -13.40016  eV     1   --> A              
     e(  9 -  9) =    -13.39499  eV     1   --> A              
     e( 10 - 10) =    -13.30460  eV     1   --> A              
     e( 11 - 11) =    -13.24491  eV     1   --> A              
     e( 12 - 12) =    -13.21820  eV     1   --> A              
     e( 13 - 13) =    -13.20297  eV     1   --> A              
     e( 14 - 14) =    -13.20165  eV     1   --> A              
     e( 15 - 15) =    -13.19713  eV     1   --> A              
     e( 16 - 16) =    -13.02412  eV     1   --> A              
     e( 17 - 17) =    -12.97719  eV     1   --> A              
     e( 18 - 18) =    -12.91181  eV     1   --> A              
     e( 19 - 19) =    -12.81210  eV     1   --> A              
     e( 20 - 20) =    -12.74252  eV     1   --> A              
     e( 21 - 21) =    -12.72981  eV     1   --> A              
     e( 22 - 22) =    -12.72741  eV     1   --> A              
     e( 23 - 23) =    -12.72167  eV     1   --> A              
     e( 24 - 24) =    -12.71857  eV     1   --> A              
     e( 25 - 25) =      0.67079  eV     1   --> A              
     e( 26 - 26) =      1.27607  eV     1   --> A              
     e( 27 - 27) =      7.95242  eV     1   --> A              
     e( 28 - 28) =      8.01906  eV     1   --> A              
     e( 29 - 29) =      8.91471  eV     1   --> A              
     e( 30 - 30) =      9.33295  eV     1   --> A              
     e( 31 - 31) =      9.60593  eV     1   --> A              
     e( 32 - 32) =     10.58989  eV     1   --> A              
     e( 33 - 33) =     10.60468  eV     1   --> A              
     e( 34 - 34) =     11.28288  eV     1   --> A              
     e( 35 - 35) =     11.30601  eV     1   --> A              
     e( 36 - 36) =     11.35812  eV     1   --> A              
     e( 37 - 37) =     11.39338  eV     1   --> A              
     e( 38 - 38) =     11.52048  eV     1   --> A              
     e( 39 - 39) =     11.58543  eV     1   --> A              
     e( 40 - 40) =     11.65309  eV     1   --> A              
     e( 41 - 41) =     11.89569  eV     1   --> A              
     e( 42 - 42) =     13.08531  eV     1   --> A              
     e( 43 - 43) =     13.14644  eV     1   --> A              
     e( 44 - 44) =     13.88642  eV     1   --> A              
     e( 45 - 45) =     14.05306  eV     1   --> A              
     e( 46 - 46) =     14.09625  eV     1   --> A              
     e( 47 - 47) =     14.22338  eV     1   --> A              
     e( 48 - 48) =     14.26077  eV     1   --> A              
     e( 49 - 49) =     14.35769  eV     1   --> A              
     e( 50 - 50) =     14.72967  eV     1   --> A              
     e( 51 - 51) =     14.86499  eV     1   --> A              
     e( 52 - 52) =     15.03742  eV     1   --> A              
     e( 53 - 53) =     15.11175  eV     1   --> A              
     e( 54 - 54) =     15.15209  eV     1   --> A              
     e( 55 - 55) =     15.26469  eV     1   --> A              
     e( 56 - 56) =     15.65466  eV     1   --> A              
     e( 57 - 57) =     15.73212  eV     1   --> A              
     e( 58 - 58) =     15.88708  eV     1   --> A              
     e( 59 - 59) =     16.16720  eV     1   --> A              
     e( 60 - 60) =     16.21015  eV     1   --> A              
     e( 61 - 61) =     16.49714  eV     1   --> A              
     e( 62 - 62) =     16.77411  eV     1   --> A              
     e( 63 - 63) =     16.96619  eV     1   --> A              
     e( 64 - 64) =     17.02446  eV     1   --> A              
     e( 65 - 65) =     17.08432  eV     1   --> A              
     e( 66 - 66) =     17.27341  eV     1   --> A              
     e( 67 - 67) =     18.03946  eV     1   --> A              
     e( 68 - 68) =     18.06279  eV     1   --> A              
     e( 69 - 69) =     18.14893  eV     1   --> A              
     e( 70 - 70) =     18.26363  eV     1   --> A              
     e( 71 - 71) =     18.40369  eV     1   --> A              
     e( 72 - 72) =     18.98400  eV     1   --> A              
     e( 73 - 73) =     21.07855  eV     1   --> A              
     e( 74 - 74) =     21.20226  eV     1   --> A              
     e( 75 - 75) =     21.26488  eV     1   --> A              
     e( 76 - 76) =     21.92724  eV     1   --> A              
     e( 77 - 77) =     22.31130  eV     1   --> A              
     e( 78 - 78) =     22.64914  eV     1   --> A              
     e( 79 - 79) =     23.00642  eV     1   --> A              
     e( 80 - 80) =     23.44629  eV     1   --> A              
     e( 81 - 81) =     23.52661  eV     1   --> A              
     e( 82 - 82) =     23.53312  eV     1   --> A              
     e( 83 - 83) =     23.62655  eV     1   --> A              
     e( 84 - 84) =     24.15617  eV     1   --> A              
     e( 85 - 85) =     24.35935  eV     1   --> A              
     e( 86 - 86) =     24.63360  eV     1   --> A              
     e( 87 - 87) =     25.72696  eV     1   --> A              
     e( 88 - 88) =     25.75342  eV     1   --> A              
     e( 89 - 89) =     25.89903  eV     1   --> A              
     e( 90 - 90) =     26.15796  eV     1   --> A              
     e( 91 - 91) =     26.26714  eV     1   --> A              
     e( 92 - 92) =     26.64954  eV     1   --> A              
     e( 93 - 93) =     26.74036  eV     1   --> A              
     e( 94 - 94) =     26.86705  eV     1   --> A              
     e( 95 - 95) =     26.98418  eV     1   --> A              

 **************************************************************************

 **************************************************************************

                    xk=(   0.15000,   0.08660,   0.00000  )

     Band symmetry, C_1 (1)     point group:

     e(  1 -  1) =    -35.20354  eV     1   --> A              
     e(  2 -  2) =    -35.19674  eV     1   --> A              
     e(  3 -  3) =    -35.18738  eV     1   --> A              
     e(  4 -  4) =    -34.84575  eV     1   --> A              
     e(  5 -  5) =    -34.81586  eV     1   --> A              
     e(  6 -  6) =    -34.80700  eV     1   --> A              
     e(  7 -  7) =    -13.50555  eV     1   --> A              
     e(  8 -  8) =    -13.40228  eV     1   --> A              
     e(  9 -  9) =    -13.39647  eV     1   --> A              
     e( 10 - 10) =    -13.30506  eV     1   --> A              
     e( 11 - 11) =    -13.24403  eV     1   --> A              
     e( 12 - 12) =    -13.21895  eV     1   --> A              
     e( 13 - 13) =    -13.20341  eV     1   --> A              
     e( 14 - 14) =    -13.19791  eV     1   --> A              
     e( 15 - 15) =    -13.19613  eV     1   --> A              
     e( 16 - 16) =    -13.03368  eV     1   --> A              
     e( 17 - 17) =    -12.97436  eV     1   --> A              
     e( 18 - 18) =    -12.90221  eV     1   --> A              
     e( 19 - 19) =    -12.81277  eV     1   --> A              
     e( 20 - 20) =    -12.74389  eV     1   --> A              
     e( 21 - 21) =    -12.73349  eV     1   --> A              
     e( 22 - 22) =    -12.72725  eV     1   --> A              
     e( 23 - 23) =    -12.72078  eV     1   --> A              
     e( 24 - 24) =    -12.71908  eV     1   --> A              
     e( 25 - 25) =      0.68060  eV     1   --> A              
     e( 26 - 26) =      1.26639  eV     1   --> A              
     e( 27 - 27) =      7.93639  eV     1   --> A              
     e( 28 - 28) =      8.02265  eV     1   --> A              
     e( 29 - 29) =      8.86440  eV     1   --> A              
     e( 30 - 30) =      9.33371  eV     1   --> A              
     e( 31 - 31) =      9.66485  eV     1   --> A              
     e( 32 - 32) =     10.60252  eV     1   --> A              
     e( 33 - 33) =     10.61103  eV     1   --> A              
     e( 34 - 34) =     11.26969  eV     1   --> A              
     e( 35 - 35) =     11.30101  eV     1   --> A              
     e( 36 - 36) =     11.34532  eV     1   --> A              
     e( 37 - 37) =     11.39421  eV     1   --> A              
     e( 38 - 38) =     11.54233  eV     1   --> A              
     e( 39 - 39) =     11.63115  eV     1   --> A              
     e( 40 - 40) =     11.65030  eV     1   --> A              
     e( 41 - 41) =     11.92364  eV     1   --> A              
     e( 42 - 42) =     13.02065  eV     1   --> A              
     e( 43 - 43) =     13.09489  eV     1   --> A              
     e( 44 - 44) =     13.84620  eV     1   --> A              
     e( 45 - 45) =     14.04874  eV     1   --> A              
     e( 46 - 46) =     14.11633  eV     1   --> A              
     e( 47 - 47) =     14.25869  eV     1   --> A              
     e( 48 - 48) =     14.30038  eV     1   --> A              
     e( 49 - 49) =     14.39428  eV     1   --> A              
     e( 50 - 50) =     14.73116  eV     1   --> A              
     e( 51 - 51) =     14.90383  eV     1   --> A              
     e( 52 - 52) =     15.00843  eV     1   --> A              
     e( 53 - 53) =     15.11176  eV     1   --> A              
     e( 54 - 54) =     15.14962  eV     1   --> A              
     e( 55 - 55) =     15.26458  eV     1   --> A              
     e( 56 - 56) =     15.61737  eV     1   --> A              
     e( 57 - 57) =     15.71822  eV     1   --> A              
     e( 58 - 58) =     15.81211  eV     1   --> A              
     e( 59 - 59) =     16.17892  eV     1   --> A              
     e( 60 - 60) =     16.23875  eV     1   --> A              
     e( 61 - 61) =     16.45519  eV     1   --> A              
     e( 62 - 62) =     16.77519  eV     1   --> A              
     e( 63 - 63) =     16.89538  eV     1   --> A              
     e( 64 - 64) =     16.99098  eV     1   --> A              
     e( 65 - 65) =     17.17478  eV     1   --> A              
     e( 66 - 66) =     17.30174  eV     1   --> A              
     e( 67 - 67) =     18.01133  eV     1   --> A              
     e( 68 - 68) =     18.08235  eV     1   --> A              
     e( 69 - 69) =     18.16340  eV     1   --> A              
     e( 70 - 70) =     18.34184  eV     1   --> A              
     e( 71 - 71) =     18.51469  eV     1   --> A              
     e( 72 - 72) =     18.92959  eV     1   --> A              
     e( 73 - 73) =     21.01228  eV     1   --> A              
     e( 74 - 74) =     21.17232  eV     1   --> A              
     e( 75 - 75) =     21.24487  eV     1   --> A              
     e( 76 - 76) =     21.91943  eV     1   --> A              
     e( 77 - 77) =     22.25840  eV     1   --> A              
     e( 78 - 78) =     22.60869  eV     1   --> A              
     e( 79 - 79) =     23.04844  eV     1   --> A              
     e( 80 - 80) =     23.43012  eV     1   --> A              
     e( 81 - 81) =     23.49237  eV     1   --> A              
     e( 82 - 82) =     23.55536  eV     1   --> A              
     e( 83 - 83) =     23.61212  eV     1   --> A              
     e( 84 - 84) =     24.16882  eV     1   --> A              
     e( 85 - 85) =     24.36440  eV     1   --> A              
     e( 86 - 86) =     24.74443  eV     1   --> A              
     e( 87 - 87) =     25.66660  eV     1   --> A              
     e( 88 - 88) =     25.72716  eV     1   --> A              
     e( 89 - 89) =     25.88963  eV     1   --> A              
     e( 90 - 90) =     26.03649  eV     1   --> A              
     e( 91 - 91) =     26.21807  eV     1   --> A              
     e( 92 - 92) =     26.58774  eV     1   --> A              
     e( 93 - 93) =     26.75116  eV     1   --> A              
     e( 94 - 94) =     26.97126  eV     1   --> A              
     e( 95 - 95) =     27.13719  eV     1   --> A              

 **************************************************************************

 **************************************************************************

                    xk=(   0.17500,   0.10104,   0.00000  )

     Band symmetry, C_1 (1)     point group:

     e(  1 -  1) =    -35.20336  eV     1   --> A              
     e(  2 -  2) =    -35.19686  eV     1   --> A              
     e(  3 -  3) =    -35.18743  eV     1   --> A              
     e(  4 -  4) =    -34.84601  eV     1   --> A              
     e(  5 -  5) =    -34.81571  eV     1   --> A              
     e(  6 -  6) =    -34.80691  eV     1   --> A              
     e(  7 -  7) =    -13.50338  eV     1   --> A              
     e(  8 -  8) =    -13.40470  eV     1   --> A              
     e(  9 -  9) =    -13.39813  eV     1   --> A              
     e( 10 - 10) =    -13.30525  eV     1   --> A              
     e( 11 - 11) =    -13.24301  eV     1   --> A              
     e( 12 - 12) =    -13.21993  eV     1   --> A              
     e( 13 - 13) =    -13.20400  eV     1   --> A              
     e( 14 - 14) =    -13.19814  eV     1   --> A              
     e( 15 - 15) =    -13.19083  eV     1   --> A              
     e( 16 - 16) =    -13.04289  eV     1   --> A              
     e( 17 - 17) =    -12.97100  eV     1   --> A              
     e( 18 - 18) =    -12.89294  eV     1   --> A              
     e( 19 - 19) =    -12.81352  eV     1   --> A              
     e( 20 - 20) =    -12.74532  eV     1   --> A              
     e( 21 - 21) =    -12.73782  eV     1   --> A              
     e( 22 - 22) =    -12.72695  eV     1   --> A              
     e( 23 - 23) =    -12.72057  eV     1   --> A              
     e( 24 - 24) =    -12.71903  eV     1   --> A              
     e( 25 - 25) =      0.69196  eV     1   --> A              
     e( 26 - 26) =      1.25520  eV     1   --> A              
     e( 27 - 27) =      7.91853  eV     1   --> A              
     e( 28 - 28) =      8.02387  eV     1   --> A              
     e( 29 - 29) =      8.82252  eV     1   --> A              
     e( 30 - 30) =      9.33445  eV     1   --> A              
     e( 31 - 31) =      9.71927  eV     1   --> A              
     e( 32 - 32) =     10.61719  eV     1   --> A              
     e( 33 - 33) =     10.61814  eV     1   --> A              
     e( 34 - 34) =     11.25714  eV     1   --> A              
     e( 35 - 35) =     11.29760  eV     1   --> A              
     e( 36 - 36) =     11.33114  eV     1   --> A              
     e( 37 - 37) =     11.39528  eV     1   --> A              
     e( 38 - 38) =     11.56426  eV     1   --> A              
     e( 39 - 39) =     11.64398  eV     1   --> A              
     e( 40 - 40) =     11.68179  eV     1   --> A              
     e( 41 - 41) =     11.95640  eV     1   --> A              
     e( 42 - 42) =     12.95617  eV     1   --> A              
     e( 43 - 43) =     13.04071  eV     1   --> A              
     e( 44 - 44) =     13.80898  eV     1   --> A              
     e( 45 - 45) =     14.04488  eV     1   --> A              
     e( 46 - 46) =     14.13889  eV     1   --> A              
     e( 47 - 47) =     14.29369  eV     1   --> A              
     e( 48 - 48) =     14.33426  eV     1   --> A              
     e( 49 - 49) =     14.43085  eV     1   --> A              
     e( 50 - 50) =     14.73283  eV     1   --> A              
     e( 51 - 51) =     14.93867  eV     1   --> A              
     e( 52 - 52) =     14.97489  eV     1   --> A              
     e( 53 - 53) =     15.10553  eV     1   --> A              
     e( 54 - 54) =     15.15241  eV     1   --> A              
     e( 55 - 55) =     15.26462  eV     1   --> A              
     e( 56 - 56) =     15.58234  eV     1   --> A              
     e( 57 - 57) =     15.70308  eV     1   --> A              
     e( 58 - 58) =     15.73863  eV     1   --> A              
     e( 59 - 59) =     16.19706  eV     1   --> A              
     e( 60 - 60) =     16.26858  eV     1   --> A              
     e( 61 - 61) =     16.41331  eV     1   --> A              
     e( 62 - 62) =     16.77791  eV     1   --> A              
     e( 63 - 63) =     16.82497  eV     1   --> A              
     e( 64 - 64) =     16.96343  eV     1   --> A              
     e( 65 - 65) =     17.26605  eV     1   --> A              
     e( 66 - 66) =     17.33018  eV     1   --> A              
     e( 67 - 67) =     17.97812  eV     1   --> A              
     e( 68 - 68) =     18.10438  eV     1   --> A              
     e( 69 - 69) =     18.17894  eV     1   --> A              
     e( 70 - 70) =     18.42148  eV     1   --> A              
     e( 71 - 71) =     18.62722  eV     1   --> A              
     e( 72 - 72) =     18.86792  eV     1   --> A              
     e( 73 - 73) =     20.94423  eV     1   --> A              
     e( 74 - 74) =     21.12045  eV     1   --> A              
     e( 75 - 75) =     21.23549  eV     1   --> A              
     e( 76 - 76) =     21.91234  eV     1   --> A              
     e( 77 - 77) =     22.22208  eV     1   --> A              
     e( 78 - 78) =     22.55188  eV     1   --> A              
     e( 79 - 79) =     23.07202  eV     1   --> A              
     e( 80 - 80) =     23.40735  eV     1   --> A              
     e( 81 - 81) =     23.46141  eV     1   --> A              
     e( 82 - 82) =     23.58162  eV     1   --> A              
     e( 83 - 83) =     23.60304  eV     1   --> A              
     e( 84 - 84) =     24.18956  eV     1   --> A              
     e( 85 - 85) =     24.36712  eV     1   --> A              
     e( 86 - 86) =     24.85934  eV     1   --> A              
     e( 87 - 87) =     25.59738  eV     1   --> A              
     e( 88 - 88) =     25.67478  eV     1   --> A              
     e( 89 - 89) =     25.89199  eV     1   --> A              
     e( 90 - 90) =     25.93848  eV     1   --> A              
     e( 91 - 91) =     26.22030  eV     1   --> A              
     e( 92 - 92) =     26.52527  eV     1   --> A              
     e( 93 - 93) =     26.77754  eV     1   --> A              
     e( 94 - 94) =     27.07368  eV     1   --> A              
     e( 95 - 95) =     27.28995  eV     1   --> A              

 **************************************************************************

 **************************************************************************

                    xk=(   0.20000,   0.11547,   0.00000  )

     Band symmetry, C_1 (1)     point group:

     e(  1 -  1) =    -35.20316  eV     1   --> A              
     e(  2 -  2) =    -35.19698  eV     1   --> A              
     e(  3 -  3) =    -35.18749  eV     1   --> A              
     e(  4 -  4) =    -34.84628  eV     1   --> A              
     e(  5 -  5) =    -34.81555  eV     1   --> A              
     e(  6 -  6) =    -34.80681  eV     1   --> A              
     e(  7 -  7) =    -13.50095  eV     1   --> A              
     e(  8 -  8) =    -13.40738  eV     1   --> A              
     e(  9 -  9) =    -13.39993  eV     1   --> A              
     e( 10 - 10) =    -13.30510  eV     1   --> A              
     e( 11 - 11) =    -13.24186  eV     1   --> A              
     e( 12 - 12) =    -13.22119  eV     1   --> A              
     e( 13 - 13) =    -13.20470  eV     1   --> A              
     e( 14 - 14) =    -13.19861  eV     1   --> A              
     e( 15 - 15) =    -13.18518  eV     1   --> A              
     e( 16 - 16) =    -13.05160  eV     1   --> A              
     e( 17 - 17) =    -12.96708  eV     1   --> A              
     e( 18 - 18) =    -12.88414  eV     1   --> A              
     e( 19 - 19) =    -12.81433  eV     1   --> A              
     e( 20 - 20) =    -12.74685  eV     1   --> A              
     e( 21 - 21) =    -12.74257  eV     1   --> A              
     e( 22 - 22) =    -12.72659  eV     1   --> A              
     e( 23 - 23) =    -12.72123  eV     1   --> A              
     e( 24 - 24) =    -12.71828  eV     1   --> A              
     e( 25 - 25) =      0.70476  eV     1   --> A              
     e( 26 - 26) =      1.24259  eV     1   --> A              
     e( 27 - 27) =      7.89932  eV     1   --> A              
     e( 28 - 28) =      8.02162  eV     1   --> A              
     e( 29 - 29) =      8.79048  eV     1   --> A              
     e( 30 - 30) =      9.33522  eV     1   --> A              
     e( 31 - 31) =      9.76842  eV     1   --> A              
     e( 32 - 32) =     10.62590  eV     1   --> A              
     e( 33 - 33) =     10.63377  eV     1   --> A              
     e( 34 - 34) =     11.24539  eV     1   --> A              
     e( 35 - 35) =     11.29542  eV     1   --> A              
     e( 36 - 36) =     11.31591  eV     1   --> A              
     e( 37 - 37) =     11.39662  eV     1   --> A              
     e( 38 - 38) =     11.58589  eV     1   --> A              
     e( 39 - 39) =     11.63768  eV     1   --> A              
     e( 40 - 40) =     11.73245  eV     1   --> A              
     e( 41 - 41) =     11.99363  eV     1   --> A              
     e( 42 - 42) =     12.89396  eV     1   --> A              
     e( 43 - 43) =     12.98532  eV     1   --> A              
     e( 44 - 44) =     13.77541  eV     1   --> A              
     e( 45 - 45) =     14.04167  eV     1   --> A              
     e( 46 - 46) =     14.16349  eV     1   --> A              
     e( 47 - 47) =     14.32672  eV     1   --> A              
     e( 48 - 48) =     14.36073  eV     1   --> A              
     e( 49 - 49) =     14.46728  eV     1   --> A              
     e( 50 - 50) =     14.73477  eV     1   --> A              
     e( 51 - 51) =     14.93060  eV     1   --> A              
     e( 52 - 52) =     14.97363  eV     1   --> A              
     e( 53 - 53) =     15.09388  eV     1   --> A              
     e( 54 - 54) =     15.15879  eV     1   --> A              
     e( 55 - 55) =     15.26359  eV     1   --> A              
     e( 56 - 56) =     15.55287  eV     1   --> A              
     e( 57 - 57) =     15.66714  eV     1   --> A              
     e( 58 - 58) =     15.68911  eV     1   --> A              
     e( 59 - 59) =     16.22311  eV     1   --> A              
     e( 60 - 60) =     16.29127  eV     1   --> A              
     e( 61 - 61) =     16.37993  eV     1   --> A              
     e( 62 - 62) =     16.75813  eV     1   --> A              
     e( 63 - 63) =     16.78353  eV     1   --> A              
     e( 64 - 64) =     16.94088  eV     1   --> A              
     e( 65 - 65) =     17.35519  eV     1   --> A              
     e( 66 - 66) =     17.35886  eV     1   --> A              
     e( 67 - 67) =     17.94012  eV     1   --> A              
     e( 68 - 68) =     18.12807  eV     1   --> A              
     e( 69 - 69) =     18.19463  eV     1   --> A              
     e( 70 - 70) =     18.50054  eV     1   --> A              
     e( 71 - 71) =     18.73686  eV     1   --> A              
     e( 72 - 72) =     18.80166  eV     1   --> A              
     e( 73 - 73) =     20.87752  eV     1   --> A              
     e( 74 - 74) =     21.05281  eV     1   --> A              
     e( 75 - 75) =     21.23268  eV     1   --> A              
     e( 76 - 76) =     21.90649  eV     1   --> A              
     e( 77 - 77) =     22.20114  eV     1   --> A              
     e( 78 - 78) =     22.48172  eV     1   --> A              
     e( 79 - 79) =     23.07128  eV     1   --> A              
     e( 80 - 80) =     23.37828  eV     1   --> A              
     e( 81 - 81) =     23.43841  eV     1   --> A              
     e( 82 - 82) =     23.59473  eV     1   --> A              
     e( 83 - 83) =     23.61347  eV     1   --> A              
     e( 84 - 84) =     24.21781  eV     1   --> A              
     e( 85 - 85) =     24.36955  eV     1   --> A              
     e( 86 - 86) =     24.97204  eV     1   --> A              
     e( 87 - 87) =     25.53587  eV     1   --> A              
     e( 88 - 88) =     25.59610  eV     1   --> A              
     e( 89 - 89) =     25.83859  eV     1   --> A              
     e( 90 - 90) =     25.93391  eV     1   --> A              
     e( 91 - 91) =     26.25920  eV     1   --> A              
     e( 92 - 92) =     26.46623  eV     1   --> A              
     e( 93 - 93) =     26.82017  eV     1   --> A              
     e( 94 - 94) =     27.17190  eV     1   --> A              
     e( 95 - 95) =     27.43356  eV     1   --> A              

 **************************************************************************

 **************************************************************************

                    xk=(   0.22500,   0.12990,   0.00000  )

     Band symmetry, C_1 (1)     point group:

     e(  1 -  1) =    -35.20293  eV     1   --> A              
     e(  2 -  2) =    -35.19713  eV     1   --> A              
     e(  3 -  3) =    -35.18755  eV     1   --> A              
     e(  4 -  4) =    -34.84657  eV     1   --> A              
     e(  5 -  5) =    -34.81538  eV     1   --> A              
     e(  6 -  6) =    -34.80671  eV     1   --> A              
     e(  7 -  7) =    -13.49826  eV     1   --> A              
     e(  8 -  8) =    -13.41026  eV     1   --> A              
     e(  9 -  9) =    -13.40182  eV     1   --> A              
     e( 10 - 10) =    -13.30458  eV     1   --> A              
     e( 11 - 11) =    -13.24057  eV     1   --> A              
     e( 12 - 12) =    -13.22276  eV     1   --> A              
     e( 13 - 13) =    -13.20549  eV     1   --> A              
     e( 14 - 14) =    -13.19912  eV     1   --> A              
     e( 15 - 15) =    -13.17954  eV     1   --> A              
     e( 16 - 16) =    -13.05971  eV     1   --> A              
     e( 17 - 17) =    -12.96261  eV     1   --> A              
     e( 18 - 18) =    -12.87595  eV     1   --> A              
     e( 19 - 19) =    -12.81518  eV     1   --> A              
     e( 20 - 20) =    -12.74910  eV     1   --> A              
     e( 21 - 21) =    -12.74692  eV     1   --> A              
     e( 22 - 22) =    -12.72624  eV     1   --> A              
     e( 23 - 23) =    -12.72211  eV     1   --> A              
     e( 24 - 24) =    -12.71745  eV     1   --> A              
     e( 25 - 25) =      0.71887  eV     1   --> A              
     e( 26 - 26) =      1.22872  eV     1   --> A              
     e( 27 - 27) =      7.87921  eV     1   --> A              
     e( 28 - 28) =      8.01515  eV     1   --> A              
     e( 29 - 29) =      8.76908  eV     1   --> A              
     e( 30 - 30) =      9.33609  eV     1   --> A              
     e( 31 - 31) =      9.81166  eV     1   --> A              
     e( 32 - 32) =     10.63425  eV     1   --> A              
     e( 33 - 33) =     10.65207  eV     1   --> A              
     e( 34 - 34) =     11.23455  eV     1   --> A              
     e( 35 - 35) =     11.29339  eV     1   --> A              
     e( 36 - 36) =     11.30069  eV     1   --> A              
     e( 37 - 37) =     11.39828  eV     1   --> A              
     e( 38 - 38) =     11.60632  eV     1   --> A              
     e( 39 - 39) =     11.63029  eV     1   --> A              
     e( 40 - 40) =     11.78349  eV     1   --> A              
     e( 41 - 41) =     12.03478  eV     1   --> A              
     e( 42 - 42) =     12.83570  eV     1   --> A              
     e( 43 - 43) =     12.92993  eV     1   --> A              
     e( 44 - 44) =     13.74589  eV     1   --> A              
     e( 45 - 45) =     14.03918  eV     1   --> A              
     e( 46 - 46) =     14.18947  eV     1   --> A              
     e( 47 - 47) =     14.35469  eV     1   --> A              
     e( 48 - 48) =     14.38117  eV     1   --> A              
     e( 49 - 49) =     14.50334  eV     1   --> A              
     e( 50 - 50) =     14.73710  eV     1   --> A              
     e( 51 - 51) =     14.88753  eV     1   --> A              
     e( 52 - 52) =     14.99531  eV     1   --> A              
     e( 53 - 53) =     15.07877  eV     1   --> A              
     e( 54 - 54) =     15.16469  eV     1   --> A              
     e( 55 - 55) =     15.26171  eV     1   --> A              
     e( 56 - 56) =     15.53114  eV     1   --> A              
     e( 57 - 57) =     15.60083  eV     1   --> A              
     e( 58 - 58) =     15.67632  eV     1   --> A              
     e( 59 - 59) =     16.25751  eV     1   --> A              
     e( 60 - 60) =     16.28067  eV     1   --> A              
     e( 61 - 61) =     16.38046  eV     1   --> A              
     e( 62 - 62) =     16.69963  eV     1   --> A              
     e( 63 - 63) =     16.79140  eV     1   --> A              
     e( 64 - 64) =     16.92244  eV     1   --> A              
     e( 65 - 65) =     17.38424  eV     1   --> A              
     e( 66 - 66) =     17.44355  eV     1   --> A              
     e( 67 - 67) =     17.89785  eV     1   --> A              
     e( 68 - 68) =     18.15250  eV     1   --> A              
     e( 69 - 69) =     18.20913  eV     1   --> A              
     e( 70 - 70) =     18.57731  eV     1   --> A              
     e( 71 - 71) =     18.72611  eV     1   --> A              
     e( 72 - 72) =     18.84746  eV     1   --> A              
     e( 73 - 73) =     20.81440  eV     1   --> A              
     e( 74 - 74) =     20.97675  eV     1   --> A              
     e( 75 - 75) =     21.23342  eV     1   --> A              
     e( 76 - 76) =     21.90217  eV     1   --> A              
     e( 77 - 77) =     22.19161  eV     1   --> A              
     e( 78 - 78) =     22.40267  eV     1   --> A              
     e( 79 - 79) =     23.04585  eV     1   --> A              
     e( 80 - 80) =     23.34377  eV     1   --> A              
     e( 81 - 81) =     23.42463  eV     1   --> A              
     e( 82 - 82) =     23.59155  eV     1   --> A              
     e( 83 - 83) =     23.64117  eV     1   --> A              
     e( 84 - 84) =     24.24984  eV     1   --> A              
     e( 85 - 85) =     24.37631  eV     1   --> A              
     e( 86 - 86) =     25.07484  eV     1   --> A              
     e( 87 - 87) =     25.47919  eV     1   --> A              
     e( 88 - 88) =     25.51724  eV     1   --> A              
     e( 89 - 89) =     25.78037  eV     1   --> A              
     e( 90 - 90) =     25.97324  eV     1   --> A              
     e( 91 - 91) =     26.30897  eV     1   --> A              
     e( 92 - 92) =     26.41939  eV     1   --> A              
     e( 93 - 93) =     26.87925  eV     1   --> A              
     e( 94 - 94) =     27.26320  eV     1   --> A              
     e( 95 - 95) =     27.55226  eV     1   --> A              

 **************************************************************************

 **************************************************************************

                    xk=(   0.25000,   0.14434,   0.00000  )

     Band symmetry, C_1 (1)     point group:

     e(  1 -  1) =    -35.20269  eV     1   --> A              
     e(  2 -  2) =    -35.19729  eV     1   --> A              
     e(  3 -  3) =    -35.18762  eV     1   --> A              
     e(  4 -  4) =    -34.84685  eV     1   --> A              
     e(  5 -  5) =    -34.81522  eV     1   --> A              
     e(  6 -  6) =    -34.80661  eV     1   --> A              
     e(  7 -  7) =    -13.49535  eV     1   --> A              
     e(  8 -  8) =    -13.41332  eV     1   --> A              
     e(  9 -  9) =    -13.40376  eV     1   --> A              
     e( 10 - 10) =    -13.30366  eV     1   --> A              
     e( 11 - 11) =    -13.23917  eV     1   --> A              
     e( 12 - 12) =    -13.22467  eV     1   --> A              
     e( 13 - 13) =    -13.20640  eV     1   --> A              
     e( 14 - 14) =    -13.19965  eV     1   --> A              
     e( 15 - 15) =    -13.17408  eV     1   --> A              
     e( 16 - 16) =    -13.06711  eV     1   --> A              
     e( 17 - 17) =    -12.95759  eV     1   --> A              
     e( 18 - 18) =    -12.86853  eV     1   --> A              
     e( 19 - 19) =    -12.81605  eV     1   --> A              
     e( 20 - 20) =    -12.75383  eV     1   --> A              
     e( 21 - 21) =    -12.74896  eV     1   --> A              
     e( 22 - 22) =    -12.72602  eV     1   --> A              
     e( 23 - 23) =    -12.72299  eV     1   --> A              
     e( 24 - 24) =    -12.71666  eV     1   --> A              
     e( 25 - 25) =      0.73412  eV     1   --> A              
     e( 26 - 26) =      1.21373  eV     1   --> A              
     e( 27 - 27) =      7.85865  eV     1   --> A              
     e( 28 - 28) =      8.00436  eV     1   --> A              
     e( 29 - 29) =      8.75834  eV     1   --> A              
     e( 30 - 30) =      9.33720  eV     1   --> A              
     e( 31 - 31) =      9.84841  eV     1   --> A              
     e( 32 - 32) =     10.64310  eV     1   --> A              
     e( 33 - 33) =     10.67188  eV     1   --> A              
     e( 34 - 34) =     11.22474  eV     1   --> A              
     e( 35 - 35) =     11.28139  eV     1   --> A              
     e( 36 - 36) =     11.29553  eV     1   --> A              
     e( 37 - 37) =     11.40030  eV     1   --> A              
     e( 38 - 38) =     11.61446  eV     1   --> A              
     e( 39 - 39) =     11.63307  eV     1   --> A              
     e( 40 - 40) =     11.83326  eV     1   --> A              
     e( 41 - 41) =     12.07899  eV     1   --> A              
     e( 42 - 42) =     12.78283  eV     1   --> A              
     e( 43 - 43) =     12.87552  eV     1   --> A              
     e( 44 - 44) =     13.72060  eV     1   --> A              
     e( 45 - 45) =     14.03740  eV     1   --> A              
     e( 46 - 46) =     14.21578  eV     1   --> A              
     e( 47 - 47) =     14.37003  eV     1   --> A              
     e( 48 - 48) =     14.40317  eV     1   --> A              
     e( 49 - 49) =     14.53873  eV     1   --> A              
     e( 50 - 50) =     14.74001  eV     1   --> A              
     e( 51 - 51) =     14.84027  eV     1   --> A              
     e( 52 - 52) =     15.00852  eV     1   --> A              
     e( 53 - 53) =     15.06140  eV     1   --> A              
     e( 54 - 54) =     15.16464  eV     1   --> A              
     e( 55 - 55) =     15.26286  eV     1   --> A              
     e( 56 - 56) =     15.51682  eV     1   --> A              
     e( 57 - 57) =     15.53927  eV     1   --> A              
     e( 58 - 58) =     15.66860  eV     1   --> A              
     e( 59 - 59) =     16.23524  eV     1   --> A              
     e( 60 - 60) =     16.30429  eV     1   --> A              
     e( 61 - 61) =     16.41046  eV     1   --> A              
     e( 62 - 62) =     16.65159  eV     1   --> A              
     e( 63 - 63) =     16.80296  eV     1   --> A              
     e( 64 - 64) =     16.90754  eV     1   --> A              
     e( 65 - 65) =     17.40941  eV     1   --> A              
     e( 66 - 66) =     17.52608  eV     1   --> A              
     e( 67 - 67) =     17.85224  eV     1   --> A              
     e( 68 - 68) =     18.17658  eV     1   --> A              
     e( 69 - 69) =     18.22026  eV     1   --> A              
     e( 70 - 70) =     18.64654  eV     1   --> A              
     e( 71 - 71) =     18.65736  eV     1   --> A              
     e( 72 - 72) =     18.94696  eV     1   --> A              
     e( 73 - 73) =     20.75647  eV     1   --> A              
     e( 74 - 74) =     20.89887  eV     1   --> A              
     e( 75 - 75) =     21.23645  eV     1   --> A              
     e( 76 - 76) =     21.89947  eV     1   --> A              
     e( 77 - 77) =     22.18640  eV     1   --> A              
     e( 78 - 78) =     22.32163  eV     1   --> A              
     e( 79 - 79) =     23.00085  eV     1   --> A              
     e( 80 - 80) =     23.30518  eV     1   --> A              
     e( 81 - 81) =     23.41843  eV     1   --> A              
     e( 82 - 82) =     23.58304  eV     1   --> A              
     e( 83 - 83) =     23.66821  eV     1   --> A              
     e( 84 - 84) =     24.27828  eV     1   --> A              
     e( 85 - 85) =     24.39421  eV     1   --> A              
     e( 86 - 86) =     25.15784  eV     1   --> A              
     e( 87 - 87) =     25.41496  eV     1   --> A              
     e( 88 - 88) =     25.46741  eV     1   --> A              
     e( 89 - 89) =     25.75102  eV     1   --> A              
     e( 90 - 90) =     26.02463  eV     1   --> A              
     e( 91 - 91) =     26.32064  eV     1   --> A              
     e( 92 - 92) =     26.42345  eV     1   --> A              
     e( 93 - 93) =     26.95422  eV     1   --> A              
     e( 94 - 94) =     27.34316  eV     1   --> A              
     e( 95 - 95) =     27.62624  eV     1   --> A              

 **************************************************************************

 **************************************************************************

                    xk=(   0.27500,   0.15877,   0.00000  )

     Band symmetry, C_1 (1)     point group:

     e(  1 -  1) =    -35.20243  eV     1   --> A              
     e(  2 -  2) =    -35.19746  eV     1   --> A              
     e(  3 -  3) =    -35.18768  eV     1   --> A              
     e(  4 -  4) =    -34.84714  eV     1   --> A              
     e(  5 -  5) =    -34.81505  eV     1   --> A              
     e(  6 -  6) =    -34.80651  eV     1   --> A              
     e(  7 -  7) =    -13.49225  eV     1   --> A              
     e(  8 -  8) =    -13.41652  eV     1   --> A              
     e(  9 -  9) =    -13.40569  eV     1   --> A              
     e( 10 - 10) =    -13.30236  eV     1   --> A              
     e( 11 - 11) =    -13.23767  eV     1   --> A              
     e( 12 - 12) =    -13.22693  eV     1   --> A              
     e( 13 - 13) =    -13.20742  eV     1   --> A              
     e( 14 - 14) =    -13.20017  eV     1   --> A              
     e( 15 - 15) =    -13.16894  eV     1   --> A              
     e( 16 - 16) =    -13.07373  eV     1   --> A              
     e( 17 - 17) =    -12.95202  eV     1   --> A              
     e( 18 - 18) =    -12.86208  eV     1   --> A              
     e( 19 - 19) =    -12.81691  eV     1   --> A              
     e( 20 - 20) =    -12.75918  eV     1   --> A              
     e( 21 - 21) =    -12.75032  eV     1   --> A              
     e( 22 - 22) =    -12.72625  eV     1   --> A              
     e( 23 - 23) =    -12.72356  eV     1   --> A              
     e( 24 - 24) =    -12.71594  eV     1   --> A              
     e( 25 - 25) =      0.75033  eV     1   --> A              
     e( 26 - 26) =      1.19780  eV     1   --> A              
     e( 27 - 27) =      7.83806  eV     1   --> A              
     e( 28 - 28) =      7.98981  eV     1   --> A              
     e( 29 - 29) =      8.75740  eV     1   --> A              
     e( 30 - 30) =      9.33871  eV     1   --> A              
     e( 31 - 31) =      9.87829  eV     1   --> A              
     e( 32 - 32) =     10.65236  eV     1   --> A              
     e( 33 - 33) =     10.69296  eV     1   --> A              
     e( 34 - 34) =     11.21606  eV     1   --> A              
     e( 35 - 35) =     11.26415  eV     1   --> A              
     e( 36 - 36) =     11.29564  eV     1   --> A              
     e( 37 - 37) =     11.40275  eV     1   --> A              
     e( 38 - 38) =     11.60449  eV     1   --> A              
     e( 39 - 39) =     11.65207  eV     1   --> A              
     e( 40 - 40) =     11.88023  eV     1   --> A              
     e( 41 - 41) =     12.12497  eV     1   --> A              
     e( 42 - 42) =     12.73668  eV     1   --> A              
     e( 43 - 43) =     12.82296  eV     1   --> A              
     e( 44 - 44) =     13.69954  eV     1   --> A              
     e( 45 - 45) =     14.03624  eV     1   --> A              
     e( 46 - 46) =     14.24080  eV     1   --> A              
     e( 47 - 47) =     14.37192  eV     1   --> A              
     e( 48 - 48) =     14.42926  eV     1   --> A              
     e( 49 - 49) =     14.57296  eV     1   --> A              
     e( 50 - 50) =     14.74380  eV     1   --> A              
     e( 51 - 51) =     14.79067  eV     1   --> A              
     e( 52 - 52) =     15.01198  eV     1   --> A              
     e( 53 - 53) =     15.04238  eV     1   --> A              
     e( 54 - 54) =     15.15493  eV     1   --> A              
     e( 55 - 55) =     15.27166  eV     1   --> A              
     e( 56 - 56) =     15.48270  eV     1   --> A              
     e( 57 - 57) =     15.50781  eV     1   --> A              
     e( 58 - 58) =     15.66802  eV     1   --> A              
     e( 59 - 59) =     16.17965  eV     1   --> A              
     e( 60 - 60) =     16.35864  eV     1   --> A              
     e( 61 - 61) =     16.44718  eV     1   --> A              
     e( 62 - 62) =     16.61599  eV     1   --> A              
     e( 63 - 63) =     16.81855  eV     1   --> A              
     e( 64 - 64) =     16.89603  eV     1   --> A              
     e( 65 - 65) =     17.43326  eV     1   --> A              
     e( 66 - 66) =     17.60132  eV     1   --> A              
     e( 67 - 67) =     17.80526  eV     1   --> A              
     e( 68 - 68) =     18.19854  eV     1   --> A              
     e( 69 - 69) =     18.22458  eV     1   --> A              
     e( 70 - 70) =     18.58341  eV     1   --> A              
     e( 71 - 71) =     18.71905  eV     1   --> A              
     e( 72 - 72) =     19.03756  eV     1   --> A              
     e( 73 - 73) =     20.70464  eV     1   --> A              
     e( 74 - 74) =     20.82538  eV     1   --> A              
     e( 75 - 75) =     21.24099  eV     1   --> A              
     e( 76 - 76) =     21.89828  eV     1   --> A              
     e( 77 - 77) =     22.16765  eV     1   --> A              
     e( 78 - 78) =     22.25611  eV     1   --> A              
     e( 79 - 79) =     22.94343  eV     1   --> A              
     e( 80 - 80) =     23.26426  eV     1   --> A              
     e( 81 - 81) =     23.41646  eV     1   --> A              
     e( 82 - 82) =     23.56640  eV     1   --> A              
     e( 83 - 83) =     23.69239  eV     1   --> A              
     e( 84 - 84) =     24.29719  eV     1   --> A              
     e( 85 - 85) =     24.42632  eV     1   --> A              
     e( 86 - 86) =     25.21158  eV     1   --> A              
     e( 87 - 87) =     25.35728  eV     1   --> A              
     e( 88 - 88) =     25.44384  eV     1   --> A              
     e( 89 - 89) =     25.75673  eV     1   --> A              
     e( 90 - 90) =     26.08184  eV     1   --> A              
     e( 91 - 91) =     26.28863  eV     1   --> A              
     e( 92 - 92) =     26.47979  eV     1   --> A              
     e( 93 - 93) =     27.04306  eV     1   --> A              
     e( 94 - 94) =     27.40340  eV     1   --> A              
     e( 95 - 95) =     27.65771  eV     1   --> A              

 **************************************************************************

 **************************************************************************

                    xk=(   0.30000,   0.17321,   0.00000  )

     Band symmetry, C_1 (1)     point group:

     e(  1 -  1) =    -35.20216  eV     1   --> A              
     e(  2 -  2) =    -35.19765  eV     1   --> A              
     e(  3 -  3) =    -35.18775  eV     1   --> A              
     e(  4 -  4) =    -34.84741  eV     1   --> A              
     e(  5 -  5) =    -34.81490  eV     1   --> A              
[...]
     e( 87 - 87) =     25.21985  eV     1   --> A'             
     e( 88 - 88) =     25.72132  eV     1   --> A'             
     e( 89 - 89) =     25.72991  eV     1   --> A''            
     e( 90 - 90) =     26.49992  eV     1   --> A'             
     e( 91 - 91) =     26.52897  eV     1   --> A''            
     e( 92 - 92) =     26.54261  eV     1   --> A'             
     e( 93 - 93) =     27.31249  eV     1   --> A''            
     e( 94 - 94) =     27.32134  eV     1   --> A'             
     e( 95 - 95) =     28.10882  eV     1   --> A'             

 **************************************************************************

 **************************************************************************

                    xk=(   0.66667,   0.00000,   0.93248  )

     Band symmetry, C_s (m)     point group:

     e(  1 -  1) =    -35.19120  eV     1   --> A''            
     e(  2 -  2) =    -35.19005  eV     1   --> A'             
     e(  3 -  3) =    -35.17928  eV     1   --> A'             
     e(  4 -  4) =    -34.84353  eV     1   --> A'             
     e(  5 -  5) =    -34.81031  eV     1   --> A'             
     e(  6 -  6) =    -34.80103  eV     1   --> A''            
     e(  7 -  7) =    -13.42398  eV     1   --> A'             
     e(  8 -  8) =    -13.42210  eV     1   --> A''            
     e(  9 -  9) =    -13.41090  eV     1   --> A'             
     e( 10 - 10) =    -13.40992  eV     1   --> A''            
     e( 11 - 11) =    -13.38035  eV     1   --> A'             
     e( 12 - 12) =    -13.36795  eV     1   --> A''            
     e( 13 - 13) =    -13.22398  eV     1   --> A'             
     e( 14 - 14) =    -13.11250  eV     1   --> A''            
     e( 15 - 15) =    -13.10869  eV     1   --> A'             
     e( 16 - 16) =    -13.08987  eV     1   --> A'             
     e( 17 - 17) =    -12.97447  eV     1   --> A''            
     e( 18 - 18) =    -12.97194  eV     1   --> A'             
     e( 19 - 19) =    -12.84550  eV     1   --> A''            
     e( 20 - 20) =    -12.80334  eV     1   --> A'             
     e( 21 - 21) =    -12.79499  eV     1   --> A''            
     e( 22 - 22) =    -12.75900  eV     1   --> A'             
     e( 23 - 23) =    -12.75375  eV     1   --> A'             
     e( 24 - 24) =    -12.75195  eV     1   --> A''            
     e( 25 - 25) =      1.58595  eV     1   --> A''            
     e( 26 - 26) =      1.58628  eV     1   --> A'             
     e( 27 - 27) =      7.92158  eV     1   --> A'             
     e( 28 - 28) =      7.92654  eV     1   --> A''            
     e( 29 - 29) =      8.75336  eV     1   --> A'             
     e( 30 - 30) =      9.17001  eV     1   --> A'             
     e( 31 - 31) =      9.17748  eV     1   --> A''            
     e( 32 - 32) =      9.31020  eV     1   --> A''            
     e( 33 - 33) =     10.53756  eV     1   --> A'             
     e( 34 - 34) =     11.32498  eV     1   --> A'             
     e( 35 - 35) =     11.33869  eV     1   --> A''            
     e( 36 - 36) =     11.48926  eV     1   --> A'             
     e( 37 - 37) =     11.50075  eV     1   --> A''            
     e( 38 - 38) =     11.60246  eV     1   --> A'             
     e( 39 - 39) =     11.91768  eV     1   --> A'             
     e( 40 - 40) =     12.69808  eV     1   --> A''            
     e( 41 - 41) =     12.74044  eV     1   --> A''            
     e( 42 - 42) =     12.75224  eV     1   --> A'             
     e( 43 - 43) =     12.88767  eV     1   --> A'             
     e( 44 - 44) =     12.93715  eV     1   --> A''            
     e( 45 - 45) =     12.94160  eV     1   --> A'             
     e( 46 - 46) =     13.11109  eV     1   --> A'             
     e( 47 - 47) =     13.12597  eV     1   --> A''            
     e( 48 - 48) =     13.33842  eV     1   --> A'             
     e( 49 - 49) =     14.57728  eV     1   --> A''            
     e( 50 - 50) =     14.57923  eV     1   --> A'             
     e( 51 - 51) =     15.40149  eV     1   --> A'             
     e( 52 - 52) =     15.40259  eV     1   --> A''            
     e( 53 - 53) =     15.76005  eV     1   --> A''            
     e( 54 - 54) =     16.03087  eV     1   --> A'             
     e( 55 - 55) =     16.07857  eV     1   --> A''            
     e( 56 - 56) =     16.08196  eV     1   --> A'             
     e( 57 - 57) =     16.38564  eV     1   --> A''            
     e( 58 - 58) =     16.39366  eV     1   --> A'             
     e( 59 - 59) =     16.90010  eV     1   --> A'             
     e( 60 - 60) =     16.91091  eV     1   --> A''            
     e( 61 - 61) =     17.02643  eV     1   --> A'             
     e( 62 - 62) =     17.20200  eV     1   --> A'             
     e( 63 - 63) =     17.20685  eV     1   --> A''            
     e( 64 - 64) =     17.68467  eV     1   --> A'             
     e( 65 - 65) =     17.70512  eV     1   --> A''            
     e( 66 - 66) =     18.04764  eV     1   --> A'             
     e( 67 - 67) =     18.06220  eV     1   --> A''            
     e( 68 - 68) =     18.14772  eV     1   --> A'             
     e( 69 - 69) =     19.34385  eV     1   --> A'             
     e( 70 - 70) =     19.35030  eV     1   --> A''            
     e( 71 - 71) =     19.47982  eV     1   --> A'             
     e( 72 - 72) =     19.50456  eV     1   --> A''            
     e( 73 - 73) =     19.53556  eV     1   --> A'             
     e( 74 - 74) =     19.74551  eV     1   --> A''            
     e( 75 - 75) =     20.73185  eV     1   --> A'             
     e( 76 - 76) =     20.74118  eV     1   --> A''            
     e( 77 - 77) =     21.07761  eV     1   --> A'             
     e( 78 - 78) =     21.24025  eV     1   --> A''            
     e( 79 - 79) =     21.54831  eV     1   --> A''            
     e( 80 - 80) =     21.55287  eV     1   --> A'             
     e( 81 - 81) =     23.63927  eV     1   --> A'             
     e( 82 - 82) =     23.83386  eV     1   --> A''            
     e( 83 - 83) =     23.84821  eV     1   --> A'             
     e( 84 - 84) =     24.22430  eV     1   --> A''            
     e( 85 - 85) =     24.44204  eV     1   --> A'             
     e( 86 - 86) =     25.16412  eV     1   --> A''            
     e( 87 - 87) =     25.17033  eV     1   --> A'             
     e( 88 - 88) =     25.71654  eV     1   --> A'             
     e( 89 - 89) =     25.72654  eV     1   --> A''            
     e( 90 - 90) =     26.47563  eV     1   --> A'             
     e( 91 - 91) =     26.78594  eV     1   --> A''            
     e( 92 - 92) =     26.80087  eV     1   --> A'             
     e( 93 - 93) =     27.50568  eV     1   --> A''            
     e( 94 - 94) =     27.51098  eV     1   --> A'             
     e( 95 - 95) =     28.02213  eV     1   --> A'             

 **************************************************************************

 **************************************************************************

                    xk=(   0.66667,   0.00000,   0.98429  )

     Band symmetry, C_s (m)     point group:

     e(  1 -  1) =    -35.19104  eV     1   --> A''            
     e(  2 -  2) =    -35.18988  eV     1   --> A'             
     e(  3 -  3) =    -35.17911  eV     1   --> A'             
     e(  4 -  4) =    -34.84343  eV     1   --> A'             
     e(  5 -  5) =    -34.81023  eV     1   --> A'             
     e(  6 -  6) =    -34.80095  eV     1   --> A''            
     e(  7 -  7) =    -13.42182  eV     1   --> A'             
     e(  8 -  8) =    -13.42084  eV     1   --> A''            
     e(  9 -  9) =    -13.41572  eV     1   --> A'             
     e( 10 - 10) =    -13.41379  eV     1   --> A''            
     e( 11 - 11) =    -13.38237  eV     1   --> A'             
     e( 12 - 12) =    -13.36698  eV     1   --> A''            
     e( 13 - 13) =    -13.22633  eV     1   --> A'             
     e( 14 - 14) =    -13.10809  eV     1   --> A''            
     e( 15 - 15) =    -13.10405  eV     1   --> A'             
     e( 16 - 16) =    -13.08930  eV     1   --> A'             
     e( 17 - 17) =    -12.97839  eV     1   --> A''            
     e( 18 - 18) =    -12.97603  eV     1   --> A'             
     e( 19 - 19) =    -12.84596  eV     1   --> A''            
     e( 20 - 20) =    -12.80513  eV     1   --> A'             
     e( 21 - 21) =    -12.79671  eV     1   --> A''            
     e( 22 - 22) =    -12.75855  eV     1   --> A'             
     e( 23 - 23) =    -12.75396  eV     1   --> A'             
     e( 24 - 24) =    -12.75159  eV     1   --> A''            
     e( 25 - 25) =      1.59946  eV     1   --> A''            
     e( 26 - 26) =      1.59992  eV     1   --> A'             
     e( 27 - 27) =      7.88531  eV     1   --> A'             
     e( 28 - 28) =      7.89060  eV     1   --> A''            
     e( 29 - 29) =      8.78351  eV     1   --> A'             
     e( 30 - 30) =      9.17309  eV     1   --> A'             
     e( 31 - 31) =      9.18052  eV     1   --> A''            
     e( 32 - 32) =      9.30451  eV     1   --> A''            
     e( 33 - 33) =     10.54536  eV     1   --> A'             
     e( 34 - 34) =     11.33017  eV     1   --> A'             
     e( 35 - 35) =     11.34423  eV     1   --> A''            
     e( 36 - 36) =     11.48670  eV     1   --> A'             
     e( 37 - 37) =     11.49848  eV     1   --> A''            
     e( 38 - 38) =     11.64336  eV     1   --> A'             
     e( 39 - 39) =     11.88749  eV     1   --> A'             
     e( 40 - 40) =     12.68397  eV     1   --> A''            
     e( 41 - 41) =     12.74968  eV     1   --> A''            
     e( 42 - 42) =     12.76256  eV     1   --> A'             
     e( 43 - 43) =     12.90949  eV     1   --> A'             
     e( 44 - 44) =     12.92056  eV     1   --> A''            
     e( 45 - 45) =     12.92500  eV     1   --> A'             
     e( 46 - 46) =     13.10555  eV     1   --> A'             
     e( 47 - 47) =     13.12065  eV     1   --> A''            
     e( 48 - 48) =     13.28778  eV     1   --> A'             
     e( 49 - 49) =     14.59057  eV     1   --> A''            
     e( 50 - 50) =     14.59296  eV     1   --> A'             
     e( 51 - 51) =     15.40729  eV     1   --> A'             
     e( 52 - 52) =     15.40862  eV     1   --> A''            
     e( 53 - 53) =     15.76941  eV     1   --> A''            
     e( 54 - 54) =     16.05149  eV     1   --> A'             
     e( 55 - 55) =     16.18042  eV     1   --> A''            
     e( 56 - 56) =     16.18613  eV     1   --> A'             
     e( 57 - 57) =     16.34367  eV     1   --> A''            
     e( 58 - 58) =     16.34679  eV     1   --> A'             
     e( 59 - 59) =     16.90089  eV     1   --> A'             
     e( 60 - 60) =     16.90961  eV     1   --> A''            
     e( 61 - 61) =     17.08467  eV     1   --> A'             
     e( 62 - 62) =     17.18457  eV     1   --> A'             
     e( 63 - 63) =     17.19935  eV     1   --> A''            
     e( 64 - 64) =     17.71797  eV     1   --> A'             
     e( 65 - 65) =     17.73769  eV     1   --> A''            
     e( 66 - 66) =     18.07313  eV     1   --> A'             
     e( 67 - 67) =     18.08604  eV     1   --> A''            
     e( 68 - 68) =     18.17987  eV     1   --> A'             
     e( 69 - 69) =     19.33108  eV     1   --> A'             
     e( 70 - 70) =     19.34025  eV     1   --> A''            
     e( 71 - 71) =     19.39259  eV     1   --> A'             
     e( 72 - 72) =     19.41959  eV     1   --> A''            
     e( 73 - 73) =     19.43575  eV     1   --> A'             
     e( 74 - 74) =     19.76910  eV     1   --> A''            
     e( 75 - 75) =     20.77735  eV     1   --> A'             
     e( 76 - 76) =     20.78372  eV     1   --> A''            
     e( 77 - 77) =     21.01891  eV     1   --> A'             
     e( 78 - 78) =     21.24453  eV     1   --> A''            
     e( 79 - 79) =     21.41837  eV     1   --> A''            
     e( 80 - 80) =     21.42190  eV     1   --> A'             
     e( 81 - 81) =     23.73836  eV     1   --> A'             
     e( 82 - 82) =     23.89944  eV     1   --> A''            
     e( 83 - 83) =     23.91616  eV     1   --> A'             
     e( 84 - 84) =     24.19709  eV     1   --> A''            
     e( 85 - 85) =     24.30163  eV     1   --> A'             
     e( 86 - 86) =     25.11241  eV     1   --> A''            
     e( 87 - 87) =     25.12062  eV     1   --> A'             
     e( 88 - 88) =     25.69993  eV     1   --> A'             
     e( 89 - 89) =     25.71087  eV     1   --> A''            
     e( 90 - 90) =     26.45673  eV     1   --> A'             
     e( 91 - 91) =     26.97228  eV     1   --> A''            
     e( 92 - 92) =     26.99491  eV     1   --> A'             
     e( 93 - 93) =     27.70015  eV     1   --> A'             
     e( 94 - 94) =     27.70951  eV     1   --> A''            
     e( 95 - 95) =     27.99006  eV     1   --> A'             

 **************************************************************************

 **************************************************************************

                    xk=(   0.66667,   0.00000,   1.03609  )

     Band symmetry, C_s (m)     point group:

     e(  1 -  1) =    -35.19098  eV     1   --> A''            
     e(  2 -  2) =    -35.18983  eV     1   --> A'             
     e(  3 -  3) =    -35.17905  eV     1   --> A'             
     e(  4 -  4) =    -34.84340  eV     1   --> A'             
     e(  5 -  5) =    -34.81020  eV     1   --> A'             
     e(  6 -  6) =    -34.80092  eV     1   --> A''            
     e(  7 -  7) =    -13.42032  eV     1   --> A''            
     e(  8 -  8) =    -13.41991  eV     1   --> A'             
     e(  9 -  9) =    -13.41852  eV     1   --> A'             
     e( 10 - 10) =    -13.41518  eV     1   --> A''            
     e( 11 - 11) =    -13.38304  eV     1   --> A'             
     e( 12 - 12) =    -13.36666  eV     1   --> A''            
     e( 13 - 13) =    -13.22717  eV     1   --> A'             
     e( 14 - 14) =    -13.10653  eV     1   --> A''            
     e( 15 - 15) =    -13.10241  eV     1   --> A'             
     e( 16 - 16) =    -13.08905  eV     1   --> A'             
     e( 17 - 17) =    -12.97979  eV     1   --> A''            
     e( 18 - 18) =    -12.97749  eV     1   --> A'             
     e( 19 - 19) =    -12.84612  eV     1   --> A''            
     e( 20 - 20) =    -12.80574  eV     1   --> A'             
     e( 21 - 21) =    -12.79732  eV     1   --> A''            
     e( 22 - 22) =    -12.75838  eV     1   --> A'             
     e( 23 - 23) =    -12.75404  eV     1   --> A'             
     e( 24 - 24) =    -12.75144  eV     1   --> A''            
     e( 25 - 25) =      1.60403  eV     1   --> A''            
     e( 26 - 26) =      1.60453  eV     1   --> A'             
     e( 27 - 27) =      7.87317  eV     1   --> A'             
     e( 28 - 28) =      7.87857  eV     1   --> A''            
     e( 29 - 29) =      8.79385  eV     1   --> A'             
     e( 30 - 30) =      9.17403  eV     1   --> A'             
     e( 31 - 31) =      9.18144  eV     1   --> A''            
     e( 32 - 32) =      9.30251  eV     1   --> A''            
     e( 33 - 33) =     10.54802  eV     1   --> A'             
     e( 34 - 34) =     11.33228  eV     1   --> A'             
     e( 35 - 35) =     11.34646  eV     1   --> A''            
     e( 36 - 36) =     11.48573  eV     1   --> A'             
     e( 37 - 37) =     11.49761  eV     1   --> A''            
     e( 38 - 38) =     11.65999  eV     1   --> A'             
     e( 39 - 39) =     11.87413  eV     1   --> A'             
     e( 40 - 40) =     12.67930  eV     1   --> A''            
     e( 41 - 41) =     12.75233  eV     1   --> A''            
     e( 42 - 42) =     12.76562  eV     1   --> A'             
     e( 43 - 43) =     12.91412  eV     1   --> A''            
     e( 44 - 44) =     12.91729  eV     1   --> A'             
     e( 45 - 45) =     12.91821  eV     1   --> A'             
     e( 46 - 46) =     13.10447  eV     1   --> A'             
     e( 47 - 47) =     13.11955  eV     1   --> A''            
     e( 48 - 48) =     13.27041  eV     1   --> A'             
     e( 49 - 49) =     14.59580  eV     1   --> A''            
     e( 50 - 50) =     14.59832  eV     1   --> A'             
     e( 51 - 51) =     15.40866  eV     1   --> A'             
     e( 52 - 52) =     15.41007  eV     1   --> A''            
     e( 53 - 53) =     15.77355  eV     1   --> A''            
     e( 54 - 54) =     16.05866  eV     1   --> A'             
     e( 55 - 55) =     16.24259  eV     1   --> A''            
     e( 56 - 56) =     16.26018  eV     1   --> A'             
     e( 57 - 57) =     16.29303  eV     1   --> A'             
     e( 58 - 58) =     16.30265  eV     1   --> A''            
     e( 59 - 59) =     16.90247  eV     1   --> A'             
     e( 60 - 60) =     16.91029  eV     1   --> A''            
     e( 61 - 61) =     17.12944  eV     1   --> A'             
     e( 62 - 62) =     17.15350  eV     1   --> A'             
     e( 63 - 63) =     17.19612  eV     1   --> A''            
     e( 64 - 64) =     17.72696  eV     1   --> A'             
     e( 65 - 65) =     17.74641  eV     1   --> A''            
     e( 66 - 66) =     18.08366  eV     1   --> A'             
     e( 67 - 67) =     18.09594  eV     1   --> A''            
     e( 68 - 68) =     18.19161  eV     1   --> A'             
     e( 69 - 69) =     19.32558  eV     1   --> A'             
     e( 70 - 70) =     19.33630  eV     1   --> A''            
     e( 71 - 71) =     19.36249  eV     1   --> A'             
     e( 72 - 72) =     19.38957  eV     1   --> A''            
     e( 73 - 73) =     19.40147  eV     1   --> A'             
     e( 74 - 74) =     19.77658  eV     1   --> A''            
     e( 75 - 75) =     20.80275  eV     1   --> A'             
     e( 76 - 76) =     20.80786  eV     1   --> A''            
     e( 77 - 77) =     20.99918  eV     1   --> A'             
     e( 78 - 78) =     21.24544  eV     1   --> A''            
     e( 79 - 79) =     21.36479  eV     1   --> A''            
     e( 80 - 80) =     21.36793  eV     1   --> A'             
     e( 81 - 81) =     23.78571  eV     1   --> A'             
     e( 82 - 82) =     23.92510  eV     1   --> A''            
     e( 83 - 83) =     23.94309  eV     1   --> A'             
     e( 84 - 84) =     24.18822  eV     1   --> A''            
     e( 85 - 85) =     24.23926  eV     1   --> A'             
     e( 86 - 86) =     25.08941  eV     1   --> A''            
     e( 87 - 87) =     25.09829  eV     1   --> A'             
     e( 88 - 88) =     25.69268  eV     1   --> A'             
     e( 89 - 89) =     25.70403  eV     1   --> A''            
     e( 90 - 90) =     26.44939  eV     1   --> A'             
     e( 91 - 91) =     27.03842  eV     1   --> A''            
     e( 92 - 92) =     27.06527  eV     1   --> A'             
     e( 93 - 93) =     27.74968  eV     1   --> A'             
     e( 94 - 94) =     27.77834  eV     1   --> A''            
     e( 95 - 95) =     28.04891  eV     1   --> A'             

 **************************************************************************

     BANDS        :   8m19.66s CPU   9m12.50s WALL


   This run was terminated on:  21:34:12   6Aug2025            

=------------------------------------------------------------------------------=
   JOB DONE.
=------------------------------------------------------------------------------=
